# Units: Mol/kgw
 TITLE = " Years"
VARIABLES = "X (meters) ", "H+           ", "HCO3-        ", "Ca++         ", "
 ZONE F=POINT,I=         100
 5.00000E-01               9.66443578E-04   1.00000000E-03   1.67782111E-05
 1.50000E+00               9.66443578E-04   1.00000000E-03   1.67782111E-05
 2.50000E+00               9.66443578E-04   1.00000000E-03   1.67782111E-05
 3.50000E+00               9.66443578E-04   1.00000000E-03   1.67782111E-05
 4.50000E+00               9.66443578E-04   1.00000000E-03   1.67782111E-05
 5.50000E+00               9.66443578E-04   1.00000000E-03   1.67782111E-05
 6.50000E+00               9.66443578E-04   1.00000000E-03   1.67782111E-05
 7.50000E+00               9.66443578E-04   1.00000000E-03   1.67782111E-05
 8.50000E+00               9.66443578E-04   1.00000000E-03   1.67782111E-05
 9.50000E+00               9.66443578E-04   1.00000000E-03   1.67782111E-05
 1.05000E+01               9.66443578E-04   1.00000000E-03   1.67782111E-05
 1.15000E+01               9.66443578E-04   1.00000000E-03   1.67782111E-05
 1.25000E+01               9.66443578E-04   1.00000000E-03   1.67782111E-05
 1.35000E+01               9.66443578E-04   1.00000000E-03   1.67782111E-05
 1.45000E+01               9.66443578E-04   1.00000000E-03   1.67782111E-05
 1.55000E+01               9.66443578E-04   1.00000000E-03   1.67782111E-05
 1.65000E+01               9.66443578E-04   1.00000000E-03   1.67782111E-05
 1.75000E+01               9.66443578E-04   1.00000000E-03   1.67782111E-05
 1.85000E+01               9.66443578E-04   1.00000000E-03   1.67782111E-05
 1.95000E+01               9.66443578E-04   1.00000000E-03   1.67782111E-05
 2.05000E+01               9.66443578E-04   1.00000000E-03   1.67782111E-05
 2.15000E+01               9.66443578E-04   1.00000000E-03   1.67782111E-05
 2.25000E+01               9.66443578E-04   1.00000000E-03   1.67782111E-05
 2.35000E+01               9.66443578E-04   1.00000000E-03   1.67782111E-05
 2.45000E+01               9.66443578E-04   1.00000000E-03   1.67782111E-05
 2.55000E+01               9.66443578E-04   1.00000000E-03   1.67782111E-05
 2.65000E+01               9.66443578E-04   1.00000000E-03   1.67782111E-05
 2.75000E+01               9.66443578E-04   1.00000000E-03   1.67782111E-05
 2.85000E+01               9.66443578E-04   1.00000000E-03   1.67782111E-05
 2.95000E+01               9.66443578E-04   1.00000000E-03   1.67782113E-05
 3.05000E+01               9.66443573E-04   1.00000001E-03   1.67782163E-05
 3.15000E+01               9.66443451E-04   1.00000013E-03   1.67783383E-05
 3.25000E+01               9.66440415E-04   1.00000316E-03   1.67813739E-05
 3.35000E+01               9.66365034E-04   1.00007850E-03   1.68567485E-05
 3.45000E+01               9.64585664E-04   1.00185697E-03   1.86356679E-05
 3.55000E+01               9.29048807E-04   1.03737597E-03   5.41597728E-05
 3.65000E+01               6.19278230E-05   1.90418227E-03   9.21021557E-04
 3.75000E+01               5.36995460E-05   1.91241602E-03   9.29668265E-04
 3.85000E+01               5.36964754E-05   1.91291467E-03   9.29949594E-04
 3.95000E+01               5.37141458E-05   1.91315292E-03   9.29986348E-04
 4.05000E+01               5.37230713E-05   1.91328780E-03   9.29983873E-04
 4.15000E+01               5.37214501E-05   1.91331802E-03   9.29924408E-04
 4.25000E+01               5.37058381E-05   1.91330649E-03   9.29689025E-04
 4.35000E+01               5.36557023E-05   1.91319309E-03   9.29018035E-04
 4.45000E+01               5.34958233E-05   1.91264069E-03   9.27064302E-04
 4.55000E+01               5.29389860E-05   1.91040027E-03   9.20584124E-04
 4.65000E+01               5.13711813E-05   1.90371052E-03   9.03062122E-04
 4.75000E+01               4.84256449E-05   1.89122235E-03   8.70250718E-04
 4.85000E+01               4.40074301E-05   1.87270774E-03   8.20859253E-04
 4.95000E+01               3.84362895E-05   1.84956974E-03   7.58385556E-04
 5.05000E+01               3.24032910E-05   1.82476023E-03   6.90742982E-04
 5.15000E+01               2.67399699E-05   1.80181804E-03   6.27608480E-04
 5.25000E+01               2.21353203E-05   1.78355607E-03   5.76874491E-04
 5.35000E+01               1.89786492E-05   1.77135851E-03   5.42619162E-04
 5.45000E+01               1.72626289E-05   1.76492484E-03   5.24277788E-04
 5.55000E+01               1.67285783E-05   1.76302233E-03   5.18649441E-04
 5.65000E+01               1.66513307E-05   1.76275115E-03   5.17836512E-04
 5.75000E+01               1.66403781E-05   1.76271269E-03   5.17721233E-04
 5.85000E+01               1.66387937E-05   1.76270712E-03   5.17704554E-04
 5.95000E+01               1.66385623E-05   1.76270631E-03   5.17702118E-04
 6.05000E+01               1.66385283E-05   1.76270619E-03   5.17701760E-04
 6.15000E+01               1.66385233E-05   1.76270617E-03   5.17701707E-04
 6.25000E+01               1.66385225E-05   1.76270617E-03   5.17701699E-04
 6.35000E+01               1.66385224E-05   1.76270617E-03   5.17701698E-04
 6.45000E+01               1.66385224E-05   1.76270617E-03   5.17701698E-04
 6.55000E+01               1.66385224E-05   1.76270617E-03   5.17701698E-04
 6.65000E+01               1.66385224E-05   1.76270617E-03   5.17701698E-04
 6.75000E+01               1.66385225E-05   1.76270617E-03   5.17701699E-04
 6.85000E+01               1.66385225E-05   1.76270617E-03   5.17701699E-04
 6.95000E+01               1.66385225E-05   1.76270617E-03   5.17701699E-04
 7.05000E+01               1.66385225E-05   1.76270617E-03   5.17701699E-04
 7.15000E+01               1.66385225E-05   1.76270617E-03   5.17701699E-04
 7.25000E+01               1.66385225E-05   1.76270617E-03   5.17701699E-04
 7.35000E+01               1.66385225E-05   1.76270617E-03   5.17701699E-04
 7.45000E+01               1.66385225E-05   1.76270617E-03   5.17701699E-04
 7.55000E+01               1.66385225E-05   1.76270617E-03   5.17701699E-04
 7.65000E+01               1.66385225E-05   1.76270617E-03   5.17701699E-04
 7.75000E+01               1.66385225E-05   1.76270617E-03   5.17701699E-04
 7.85000E+01               1.66385225E-05   1.76270617E-03   5.17701699E-04
 7.95000E+01               1.66385225E-05   1.76270617E-03   5.17701699E-04
 8.05000E+01               1.66385225E-05   1.76270617E-03   5.17701699E-04
 8.15000E+01               1.66385225E-05   1.76270617E-03   5.17701699E-04
 8.25000E+01               1.66385225E-05   1.76270617E-03   5.17701699E-04
 8.35000E+01               1.66385225E-05   1.76270617E-03   5.17701699E-04
 8.45000E+01               1.66385225E-05   1.76270617E-03   5.17701699E-04
 8.55000E+01               1.66385225E-05   1.76270617E-03   5.17701699E-04
 8.65000E+01               1.66385225E-05   1.76270617E-03   5.17701699E-04
 8.75000E+01               1.66385225E-05   1.76270617E-03   5.17701699E-04
 8.85000E+01               1.66385225E-05   1.76270617E-03   5.17701699E-04
 8.95000E+01               1.66385225E-05   1.76270617E-03   5.17701699E-04
 9.05000E+01               1.66385225E-05   1.76270617E-03   5.17701699E-04
 9.15000E+01               1.66385225E-05   1.76270617E-03   5.17701699E-04
 9.25000E+01               1.66385225E-05   1.76270617E-03   5.17701699E-04
 9.35000E+01               1.66385225E-05   1.76270617E-03   5.17701699E-04
 9.45000E+01               1.66385225E-05   1.76270617E-03   5.17701699E-04
 9.55000E+01               1.66385225E-05   1.76270617E-03   5.17701699E-04
 9.65000E+01               1.66385225E-05   1.76270617E-03   5.17701699E-04
 9.75000E+01               1.66385225E-05   1.76270617E-03   5.17701699E-04
 9.85000E+01               1.66385225E-05   1.76270617E-03   5.17701699E-04
 9.95000E+01               1.66385225E-05   1.76270617E-03   5.17701699E-04
