# Units: Volume % (m^3 mineral/m^3 porous medium)
 TITLE = " Years"
VARIABLES = "X (meters) ", "Calcite      ", "
 ZONE F=POINT,I=         100
 5.00000E-01               0.00000000E+00
 1.50000E+00               0.00000000E+00
 2.50000E+00               0.00000000E+00
 3.50000E+00               0.00000000E+00
 4.50000E+00               0.00000000E+00
 5.50000E+00               0.00000000E+00
 6.50000E+00               0.00000000E+00
 7.50000E+00               0.00000000E+00
 8.50000E+00               0.00000000E+00
 9.50000E+00               0.00000000E+00
 1.05000E+01               0.00000000E+00
 1.15000E+01               0.00000000E+00
 1.25000E+01               0.00000000E+00
 1.35000E+01               0.00000000E+00
 1.45000E+01               0.00000000E+00
 1.55000E+01               0.00000000E+00
 1.65000E+01               0.00000000E+00
 1.75000E+01               0.00000000E+00
 1.85000E+01               0.00000000E+00
 1.95000E+01               0.00000000E+00
 2.05000E+01               0.00000000E+00
 2.15000E+01               0.00000000E+00
 2.25000E+01               0.00000000E+00
 2.35000E+01               0.00000000E+00
 2.45000E+01               0.00000000E+00
 2.55000E+01               0.00000000E+00
 2.65000E+01               0.00000000E+00
 2.75000E+01               0.00000000E+00
 2.85000E+01               0.00000000E+00
 2.95000E+01               0.00000000E+00
 3.05000E+01               0.00000000E+00
 3.15000E+01               0.00000000E+00
 3.25000E+01               0.00000000E+00
 3.35000E+01               0.00000000E+00
 3.45000E+01               0.00000000E+00
 3.55000E+01               0.00000000E+00
 3.65000E+01               2.15948981E-06
 3.75000E+01               9.91578480E-06
 3.85000E+01               9.99909161E-06
 3.95000E+01               9.99994618E-06
 4.05000E+01               9.99992383E-06
 4.15000E+01               9.99992860E-06
 4.25000E+01               9.99990528E-06
 4.35000E+01               9.99991650E-06
 4.45000E+01               9.99988760E-06
 4.55000E+01               9.99979492E-06
 4.65000E+01               9.99978364E-06
 4.75000E+01               9.99968214E-06
 4.85000E+01               9.99968356E-06
 4.95000E+01               9.99970341E-06
 5.05000E+01               9.99976326E-06
 5.15000E+01               9.99980994E-06
 5.25000E+01               9.99980862E-06
 5.35000E+01               9.99986937E-06
 5.45000E+01               9.99986498E-06
 5.55000E+01               9.99988708E-06
 5.65000E+01               9.99988817E-06
 5.75000E+01               9.99988831E-06
 5.85000E+01               9.99988833E-06
 5.95000E+01               9.99988833E-06
 6.05000E+01               9.99988833E-06
 6.15000E+01               9.99988833E-06
 6.25000E+01               9.99988833E-06
 6.35000E+01               9.99988833E-06
 6.45000E+01               9.99988833E-06
 6.55000E+01               9.99988833E-06
 6.65000E+01               9.99988833E-06
 6.75000E+01               9.99988833E-06
 6.85000E+01               9.99988833E-06
 6.95000E+01               9.99988833E-06
 7.05000E+01               9.99988833E-06
 7.15000E+01               9.99988833E-06
 7.25000E+01               9.99988833E-06
 7.35000E+01               9.99988833E-06
 7.45000E+01               9.99988833E-06
 7.55000E+01               9.99988833E-06
 7.65000E+01               9.99988833E-06
 7.75000E+01               9.99988833E-06
 7.85000E+01               9.99988833E-06
 7.95000E+01               9.99988833E-06
 8.05000E+01               9.99988833E-06
 8.15000E+01               9.99988833E-06
 8.25000E+01               9.99988833E-06
 8.35000E+01               9.99988833E-06
 8.45000E+01               9.99988833E-06
 8.55000E+01               9.99988833E-06
 8.65000E+01               9.99988833E-06
 8.75000E+01               9.99988833E-06
 8.85000E+01               9.99988833E-06
 8.95000E+01               9.99988833E-06
 9.05000E+01               9.99988833E-06
 9.15000E+01               9.99988833E-06
 9.25000E+01               9.99988833E-06
 9.35000E+01               9.99988833E-06
 9.45000E+01               9.99988833E-06
 9.55000E+01               9.99988833E-06
 9.65000E+01               9.99988833E-06
 9.75000E+01               9.99988833E-06
 9.85000E+01               9.99988833E-06
 9.95000E+01               9.99988833E-06
