 TITLE = " Years"
 VARIABLES = "X (meters)", "pH "
 ZONE F=POINT,I=         100
 5.00000E-01               5.99572243E+00
 1.50000E+00               5.97543901E+00
 2.50000E+00               5.93922245E+00
 3.50000E+00               5.89716280E+00
 4.50000E+00               5.85544920E+00
 5.50000E+00               5.81643671E+00
 6.50000E+00               5.78060731E+00
 7.50000E+00               5.74775960E+00
 8.50000E+00               5.71750709E+00
 9.50000E+00               5.68945555E+00
 1.05000E+01               5.66325610E+00
 1.15000E+01               5.63861450E+00
 1.25000E+01               5.61528626E+00
 1.35000E+01               5.59306848E+00
 1.45000E+01               5.57179187E+00
 1.55000E+01               5.55131393E+00
 1.65000E+01               5.53151348E+00
 1.75000E+01               5.51228625E+00
 1.85000E+01               5.49354148E+00
 1.95000E+01               5.47519918E+00
 2.05000E+01               5.45718796E+00
 2.15000E+01               5.43944335E+00
 2.25000E+01               5.42190637E+00
 2.35000E+01               5.40452235E+00
 2.45000E+01               5.38724004E+00
 2.55000E+01               5.37001082E+00
 2.65000E+01               5.35278807E+00
 2.75000E+01               5.33552675E+00
 2.85000E+01               5.31818312E+00
 2.95000E+01               5.30071461E+00
 3.05000E+01               5.28308007E+00
 3.15000E+01               5.26524029E+00
 3.25000E+01               5.24715913E+00
 3.35000E+01               5.22880539E+00
 3.45000E+01               5.21015596E+00
 3.55000E+01               5.19120070E+00
 3.65000E+01               5.17194975E+00
 3.75000E+01               5.15244424E+00
 3.85000E+01               5.13277125E+00
 3.95000E+01               5.11308347E+00
 4.05000E+01               5.09362225E+00
 4.15000E+01               5.07473909E+00
 4.25000E+01               5.05690428E+00
 4.35000E+01               5.04068615E+00
 4.45000E+01               5.02668590E+00
 4.55000E+01               5.01543337E+00
 4.65000E+01               5.00726013E+00
 4.75000E+01               5.00216505E+00
 4.85000E+01               4.99982905E+00
 4.95000E+01               4.99935512E+00
 5.05000E+01               4.99933514E+00
 5.15000E+01               4.99948655E+00
 5.25000E+01               4.99973874E+00
 5.35000E+01               4.99993823E+00
 5.45000E+01               5.00003215E+00
 5.55000E+01               5.00005344E+00
 5.65000E+01               5.00005774E+00
 5.75000E+01               5.00005861E+00
 5.85000E+01               5.00005878E+00
 5.95000E+01               5.00005882E+00
 6.05000E+01               5.00005882E+00
 6.15000E+01               5.00005882E+00
 6.25000E+01               5.00005882E+00
 6.35000E+01               5.00005882E+00
 6.45000E+01               5.00005882E+00
 6.55000E+01               5.00005882E+00
 6.65000E+01               5.00005882E+00
 6.75000E+01               5.00005882E+00
 6.85000E+01               5.00005882E+00
 6.95000E+01               5.00005882E+00
 7.05000E+01               5.00005882E+00
 7.15000E+01               5.00005882E+00
 7.25000E+01               5.00005882E+00
 7.35000E+01               5.00005882E+00
 7.45000E+01               5.00005882E+00
 7.55000E+01               5.00005882E+00
 7.65000E+01               5.00005882E+00
 7.75000E+01               5.00005882E+00
 7.85000E+01               5.00005882E+00
 7.95000E+01               5.00005882E+00
 8.05000E+01               5.00005882E+00
 8.15000E+01               5.00005882E+00
 8.25000E+01               5.00005882E+00
 8.35000E+01               5.00005882E+00
 8.45000E+01               5.00005882E+00
 8.55000E+01               5.00005882E+00
 8.65000E+01               5.00005882E+00
 8.75000E+01               5.00005882E+00
 8.85000E+01               5.00005882E+00
 8.95000E+01               5.00005882E+00
 9.05000E+01               5.00005882E+00
 9.15000E+01               5.00005882E+00
 9.25000E+01               5.00005882E+00
 9.35000E+01               5.00005882E+00
 9.45000E+01               5.00005882E+00
 9.55000E+01               5.00005882E+00
 9.65000E+01               5.00005882E+00
 9.75000E+01               5.00005882E+00
 9.85000E+01               5.00005882E+00
 9.95000E+01               5.00005882E+00
