# Units: Mol/kgw
 TITLE = " Years"
VARIABLES = "X (meters) ", "H+           ", "Na+          ", "NO3-         ", "Zn++         ", "Cl-          ", "
 ZONE F=POINT,I=         100
 5.00000E-01               1.19914210E-06   1.00290153E-01   1.00293346E-01   1.00207609E-06   1.49783418E-20
 1.50000E+00               1.25774938E-06   1.00290153E-01   1.00293346E-01   9.98042270E-07   1.49783418E-20
 2.50000E+00               1.36930448E-06   1.00290153E-01   1.00293346E-01   9.90769474E-07   1.49783418E-20
 3.50000E+00               1.51087045E-06   1.00290153E-01   1.00293346E-01   9.82147717E-07   1.49783418E-20
 4.50000E+00               1.66527431E-06   1.00290153E-01   1.00293346E-01   9.73408088E-07   1.49783418E-20
 5.50000E+00               1.82356305E-06   1.00290153E-01   1.00293346E-01   9.65084071E-07   1.49783418E-20
 6.50000E+00               1.98187537E-06   1.00290153E-01   1.00293346E-01   9.57331317E-07   1.49783418E-20
 7.50000E+00               2.13884367E-06   1.00290153E-01   1.00293346E-01   9.50148374E-07   1.49783418E-20
 8.50000E+00               2.29421670E-06   1.00290153E-01   1.00293346E-01   9.43480633E-07   1.49783418E-20
 9.50000E+00               2.44821949E-06   1.00290153E-01   1.00293346E-01   9.37262049E-07   1.49783418E-20
 1.05000E+01               2.60126857E-06   1.00290153E-01   1.00293346E-01   9.31429936E-07   1.49783418E-20
 1.15000E+01               2.75384825E-06   1.00290153E-01   1.00293346E-01   9.25929451E-07   1.49783418E-20
 1.25000E+01               2.90645875E-06   1.00290153E-01   1.00293346E-01   9.20714155E-07   1.49783418E-20
 1.35000E+01               3.05959654E-06   1.00290153E-01   1.00293346E-01   9.15744855E-07   1.49783418E-20
 1.45000E+01               3.21374919E-06   1.00290153E-01   1.00293346E-01   9.10987846E-07   1.49783418E-20
 1.55000E+01               3.36939673E-06   1.00290153E-01   1.00293346E-01   9.06413508E-07   1.49783418E-20
 1.65000E+01               3.52701600E-06   1.00290153E-01   1.00293346E-01   9.01995898E-07   1.49783418E-20
 1.75000E+01               3.68708631E-06   1.00290153E-01   1.00293346E-01   8.97713108E-07   1.49783418E-20
 1.85000E+01               3.85009561E-06   1.00290153E-01   1.00293346E-01   8.93547429E-07   1.49783418E-20
 1.95000E+01               4.01654688E-06   1.00290153E-01   1.00293346E-01   8.89484509E-07   1.49783418E-20
 2.05000E+01               4.18696459E-06   1.00290153E-01   1.00293346E-01   8.85511689E-07   1.49783418E-20
 2.15000E+01               4.36190153E-06   1.00290153E-01   1.00293346E-01   8.81616494E-07   1.49783418E-20
 2.25000E+01               4.54194595E-06   1.00290153E-01   1.00293346E-01   8.77786118E-07   1.49783418E-20
 2.35000E+01               4.72772938E-06   1.00290153E-01   1.00293346E-01   8.74007934E-07   1.49783418E-20
 2.45000E+01               4.91993486E-06   1.00290153E-01   1.00293346E-01   8.70270391E-07   1.49783418E-20
 2.55000E+01               5.11930582E-06   1.00290153E-01   1.00293346E-01   8.66563697E-07   1.49783418E-20
 2.65000E+01               5.32665532E-06   1.00290153E-01   1.00293346E-01   8.62880072E-07   1.49783418E-20
 2.75000E+01               5.54287567E-06   1.00290153E-01   1.00293346E-01   8.59213611E-07   1.49783418E-20
 2.85000E+01               5.76894782E-06   1.00290153E-01   1.00293346E-01   8.55559892E-07   1.49783418E-20
 2.95000E+01               6.00594983E-06   1.00290153E-01   1.00293346E-01   8.51915499E-07   1.49783418E-20
 3.05000E+01               6.25506285E-06   1.00290153E-01   1.00293346E-01   8.48277711E-07   1.49783418E-20
 3.15000E+01               6.51757213E-06   1.00290153E-01   1.00293346E-01   8.44644622E-07   1.49783418E-20
 3.25000E+01               6.79485887E-06   1.00290153E-01   1.00293346E-01   8.41015356E-07   1.49783418E-20
 3.35000E+01               7.08837554E-06   1.00290153E-01   1.00293346E-01   8.37389307E-07   1.49783418E-20
 3.45000E+01               7.39959313E-06   1.00290153E-01   1.00293346E-01   8.33763615E-07   1.49783418E-20
 3.55000E+01               7.72990230E-06   1.00290153E-01   1.00293346E-01   8.30131488E-07   1.49783418E-20
 3.65000E+01               8.08044169E-06   1.00290153E-01   1.00293346E-01   8.26490479E-07   1.49783417E-20
 3.75000E+01               8.45181562E-06   1.00290153E-01   1.00293346E-01   8.22873714E-07   1.49783416E-20
 3.85000E+01               8.84365247E-06   1.00290153E-01   1.00293346E-01   8.19405912E-07   1.49783409E-20
 3.95000E+01               9.25395485E-06   1.00290153E-01   1.00293346E-01   8.16350315E-07   1.49783377E-20
 4.05000E+01               9.67822590E-06   1.00290153E-01   1.00293346E-01   8.14066640E-07   1.49783217E-20
 4.15000E+01               1.01084665E-05   1.00290153E-01   1.00293346E-01   8.12801688E-07   1.49782439E-20
 4.25000E+01               1.05323578E-05   1.00290152E-01   1.00293346E-01   8.12356802E-07   1.49778691E-20
 4.35000E+01               1.09332274E-05   1.00290149E-01   1.00293346E-01   8.11913872E-07   1.49760792E-20
 4.45000E+01               1.12915193E-05   1.00290131E-01   1.00293346E-01   8.09813465E-07   1.49676053E-20
 4.55000E+01               1.15879807E-05   1.00290045E-01   1.00293346E-01   7.98509466E-07   1.49276050E-20
 4.65000E+01               1.18081815E-05   1.00289706E-01   1.00293346E-01   7.61220223E-07   1.47678450E-20
 4.75000E+01               1.19475635E-05   1.00288984E-01   1.00293346E-01   6.92002032E-07   1.44288299E-20
 4.85000E+01               1.20120174E-05   1.00287861E-01   1.00293346E-01   5.92945212E-07   1.39009821E-20
 4.95000E+01               1.20251380E-05   1.00286425E-01   1.00293346E-01   4.74466866E-07   1.32260959E-20
 5.05000E+01               1.20256932E-05   1.00284870E-01   1.00293346E-01   3.53595087E-07   1.24955912E-20
 5.15000E+01               1.20215019E-05   1.00283434E-01   1.00293346E-01   2.48164698E-07   1.18205705E-20
 5.25000E+01               1.20145228E-05   1.00282310E-01   1.00293346E-01   1.70490243E-07   1.12923709E-20
 5.35000E+01               1.20090046E-05   1.00281587E-01   1.00293346E-01   1.24193424E-07   1.09529547E-20
 5.45000E+01               1.20064071E-05   1.00281247E-01   1.00293346E-01   1.05633376E-07   1.07931397E-20
 5.55000E+01               1.20058183E-05   1.00281163E-01   1.00293346E-01   1.01415294E-07   1.07533706E-20
 5.65000E+01               1.20056994E-05   1.00281145E-01   1.00293346E-01   1.00526414E-07   1.07449977E-20
 5.75000E+01               1.20056755E-05   1.00281141E-01   1.00293346E-01   1.00341378E-07   1.07432510E-20
 5.85000E+01               1.20056707E-05   1.00281140E-01   1.00293346E-01   1.00303373E-07   1.07428922E-20
 5.95000E+01               1.20056698E-05   1.00281140E-01   1.00293346E-01   1.00295706E-07   1.07428197E-20
 6.05000E+01               1.20056696E-05   1.00281140E-01   1.00293346E-01   1.00294211E-07   1.07428052E-20
 6.15000E+01               1.20056696E-05   1.00281140E-01   1.00293346E-01   1.00293921E-07   1.07428024E-20
 6.25000E+01               1.20056696E-05   1.00281140E-01   1.00293346E-01   1.00293866E-07   1.07428018E-20
 6.35000E+01               1.20056696E-05   1.00281140E-01   1.00293346E-01   1.00293856E-07   1.07428017E-20
 6.45000E+01               1.20056696E-05   1.00281140E-01   1.00293346E-01   1.00293854E-07   1.07428017E-20
 6.55000E+01               1.20056696E-05   1.00281140E-01   1.00293346E-01   1.00293853E-07   1.07428017E-20
 6.65000E+01               1.20056696E-05   1.00281140E-01   1.00293346E-01   1.00293853E-07   1.07428017E-20
 6.75000E+01               1.20056696E-05   1.00281140E-01   1.00293346E-01   1.00293853E-07   1.07428017E-20
 6.85000E+01               1.20056696E-05   1.00281140E-01   1.00293346E-01   1.00293853E-07   1.07428017E-20
 6.95000E+01               1.20056696E-05   1.00281140E-01   1.00293346E-01   1.00293853E-07   1.07428017E-20
 7.05000E+01               1.20056696E-05   1.00281140E-01   1.00293346E-01   1.00293853E-07   1.07428017E-20
 7.15000E+01               1.20056696E-05   1.00281140E-01   1.00293346E-01   1.00293853E-07   1.07428017E-20
 7.25000E+01               1.20056696E-05   1.00281140E-01   1.00293346E-01   1.00293853E-07   1.07428017E-20
 7.35000E+01               1.20056696E-05   1.00281140E-01   1.00293346E-01   1.00293853E-07   1.07428017E-20
 7.45000E+01               1.20056696E-05   1.00281140E-01   1.00293346E-01   1.00293853E-07   1.07428017E-20
 7.55000E+01               1.20056696E-05   1.00281140E-01   1.00293346E-01   1.00293853E-07   1.07428017E-20
 7.65000E+01               1.20056696E-05   1.00281140E-01   1.00293346E-01   1.00293853E-07   1.07428017E-20
 7.75000E+01               1.20056696E-05   1.00281140E-01   1.00293346E-01   1.00293853E-07   1.07428017E-20
 7.85000E+01               1.20056696E-05   1.00281140E-01   1.00293346E-01   1.00293853E-07   1.07428017E-20
 7.95000E+01               1.20056696E-05   1.00281140E-01   1.00293346E-01   1.00293853E-07   1.07428017E-20
 8.05000E+01               1.20056696E-05   1.00281140E-01   1.00293346E-01   1.00293853E-07   1.07428017E-20
 8.15000E+01               1.20056696E-05   1.00281140E-01   1.00293346E-01   1.00293853E-07   1.07428017E-20
 8.25000E+01               1.20056696E-05   1.00281140E-01   1.00293346E-01   1.00293853E-07   1.07428017E-20
 8.35000E+01               1.20056696E-05   1.00281140E-01   1.00293346E-01   1.00293853E-07   1.07428017E-20
 8.45000E+01               1.20056696E-05   1.00281140E-01   1.00293346E-01   1.00293853E-07   1.07428017E-20
 8.55000E+01               1.20056696E-05   1.00281140E-01   1.00293346E-01   1.00293853E-07   1.07428017E-20
 8.65000E+01               1.20056696E-05   1.00281140E-01   1.00293346E-01   1.00293853E-07   1.07428017E-20
 8.75000E+01               1.20056696E-05   1.00281140E-01   1.00293346E-01   1.00293853E-07   1.07428017E-20
 8.85000E+01               1.20056696E-05   1.00281140E-01   1.00293346E-01   1.00293853E-07   1.07428017E-20
 8.95000E+01               1.20056696E-05   1.00281140E-01   1.00293346E-01   1.00293853E-07   1.07428017E-20
 9.05000E+01               1.20056696E-05   1.00281140E-01   1.00293346E-01   1.00293853E-07   1.07428017E-20
 9.15000E+01               1.20056696E-05   1.00281140E-01   1.00293346E-01   1.00293853E-07   1.07428017E-20
 9.25000E+01               1.20056696E-05   1.00281140E-01   1.00293346E-01   1.00293853E-07   1.07428017E-20
 9.35000E+01               1.20056696E-05   1.00281140E-01   1.00293346E-01   1.00293853E-07   1.07428017E-20
 9.45000E+01               1.20056696E-05   1.00281140E-01   1.00293346E-01   1.00293853E-07   1.07428017E-20
 9.55000E+01               1.20056696E-05   1.00281140E-01   1.00293346E-01   1.00293853E-07   1.07428017E-20
 9.65000E+01               1.20056696E-05   1.00281140E-01   1.00293346E-01   1.00293853E-07   1.07428017E-20
 9.75000E+01               1.20056696E-05   1.00281140E-01   1.00293346E-01   1.00293853E-07   1.07428017E-20
 9.85000E+01               1.20056696E-05   1.00281140E-01   1.00293346E-01   1.00293853E-07   1.07428017E-20
 9.95000E+01               1.20056696E-05   1.00281140E-01   1.00293346E-01   1.00293853E-07   1.07428017E-20
