# Units: Mol/m^3 porous medium
 TITLE = " Years"
VARIABLES = "X (meters) ", "H+           ", "Na+          ", "NO3-         ", "Zn++         ", "Cl-          ", "
 ZONE F=POINT,I=         100
 5.00000E-01               7.30528849E-02   0.00000000E+00   0.00000000E+00   2.01425301E-04   0.00000000E+00
 1.50000E+00               7.32921110E-02   0.00000000E+00   0.00000000E+00   1.84852181E-04   0.00000000E+00
 2.50000E+00               7.36929408E-02   0.00000000E+00   0.00000000E+00   1.58241674E-04   0.00000000E+00
 3.50000E+00               7.41187798E-02   0.00000000E+00   0.00000000E+00   1.31692143E-04   0.00000000E+00
 4.50000E+00               7.45023499E-02   0.00000000E+00   0.00000000E+00   1.09439944E-04   0.00000000E+00
 5.50000E+00               7.48290697E-02   0.00000000E+00   0.00000000E+00   9.18319308E-05   0.00000000E+00
 6.50000E+00               7.51041054E-02   0.00000000E+00   0.00000000E+00   7.80338130E-05   0.00000000E+00
 7.50000E+00               7.53368285E-02   0.00000000E+00   0.00000000E+00   6.71284135E-05   0.00000000E+00
 8.50000E+00               7.55359172E-02   0.00000000E+00   0.00000000E+00   5.83825264E-05   0.00000000E+00
 9.50000E+00               7.57083406E-02   0.00000000E+00   0.00000000E+00   5.12571669E-05   0.00000000E+00
 1.05000E+01               7.58594634E-02   0.00000000E+00   0.00000000E+00   4.53641048E-05   0.00000000E+00
 1.15000E+01               7.59933796E-02   0.00000000E+00   0.00000000E+00   4.04229547E-05   0.00000000E+00
 1.25000E+01               7.61132282E-02   0.00000000E+00   0.00000000E+00   3.62288568E-05   0.00000000E+00
 1.35000E+01               7.62214402E-02   0.00000000E+00   0.00000000E+00   3.26298890E-05   0.00000000E+00
 1.45000E+01               7.63199207E-02   0.00000000E+00   0.00000000E+00   2.95116061E-05   0.00000000E+00
 1.55000E+01               7.64101817E-02   0.00000000E+00   0.00000000E+00   2.67864720E-05   0.00000000E+00
 1.65000E+01               7.64934372E-02   0.00000000E+00   0.00000000E+00   2.43865846E-05   0.00000000E+00
 1.75000E+01               7.65706738E-02   0.00000000E+00   0.00000000E+00   2.22585978E-05   0.00000000E+00
 1.85000E+01               7.66427016E-02   0.00000000E+00   0.00000000E+00   2.03601066E-05   0.00000000E+00
 1.95000E+01               7.67101925E-02   0.00000000E+00   0.00000000E+00   1.86570199E-05   0.00000000E+00
 2.05000E+01               7.67737090E-02   0.00000000E+00   0.00000000E+00   1.71216270E-05   0.00000000E+00
 2.15000E+01               7.68337258E-02   0.00000000E+00   0.00000000E+00   1.57311729E-05   0.00000000E+00
 2.25000E+01               7.68906471E-02   0.00000000E+00   0.00000000E+00   1.44668099E-05   0.00000000E+00
 2.35000E+01               7.69448192E-02   0.00000000E+00   0.00000000E+00   1.33128182E-05   0.00000000E+00
 2.45000E+01               7.69965405E-02   0.00000000E+00   0.00000000E+00   1.22560117E-05   0.00000000E+00
 2.55000E+01               7.70460699E-02   0.00000000E+00   0.00000000E+00   1.12852722E-05   0.00000000E+00
 2.65000E+01               7.70936328E-02   0.00000000E+00   0.00000000E+00   1.03911787E-05   0.00000000E+00
 2.75000E+01               7.71394257E-02   0.00000000E+00   0.00000000E+00   9.56571121E-06   0.00000000E+00
 2.85000E+01               7.71836205E-02   0.00000000E+00   0.00000000E+00   8.80201389E-06   0.00000000E+00
 2.95000E+01               7.72263665E-02   0.00000000E+00   0.00000000E+00   8.09420840E-06   0.00000000E+00
 3.05000E+01               7.72677925E-02   0.00000000E+00   0.00000000E+00   7.43724872E-06   0.00000000E+00
 3.15000E+01               7.73080074E-02   0.00000000E+00   0.00000000E+00   6.82681132E-06   0.00000000E+00
 3.25000E+01               7.73471001E-02   0.00000000E+00   0.00000000E+00   6.25921146E-06   0.00000000E+00
 3.35000E+01               7.73851379E-02   0.00000000E+00   0.00000000E+00   5.73133454E-06   0.00000000E+00
 3.45000E+01               7.74221632E-02   0.00000000E+00   0.00000000E+00   5.24057965E-06   0.00000000E+00
 3.55000E+01               7.74581889E-02   0.00000000E+00   0.00000000E+00   4.78483430E-06   0.00000000E+00
 3.65000E+01               7.74931906E-02   0.00000000E+00   0.00000000E+00   4.36252129E-06   0.00000000E+00
 3.75000E+01               7.75270966E-02   0.00000000E+00   0.00000000E+00   3.97274507E-06   0.00000000E+00
 3.85000E+01               7.75597746E-02   0.00000000E+00   0.00000000E+00   3.61547990E-06   0.00000000E+00
 3.95000E+01               7.75910166E-02   0.00000000E+00   0.00000000E+00   3.29160975E-06   0.00000000E+00
 4.05000E+01               7.76205255E-02   0.00000000E+00   0.00000000E+00   3.00256899E-06   0.00000000E+00
 4.15000E+01               7.76479093E-02   0.00000000E+00   0.00000000E+00   2.74951318E-06   0.00000000E+00
 4.25000E+01               7.76726936E-02   0.00000000E+00   0.00000000E+00   2.53239274E-06   0.00000000E+00
 4.35000E+01               7.76943619E-02   0.00000000E+00   0.00000000E+00   2.34972017E-06   0.00000000E+00
 4.45000E+01               7.77124342E-02   0.00000000E+00   0.00000000E+00   2.19797358E-06   0.00000000E+00
 4.55000E+01               7.77265888E-02   0.00000000E+00   0.00000000E+00   2.05835312E-06   0.00000000E+00
 4.65000E+01               7.77367804E-02   0.00000000E+00   0.00000000E+00   1.89014288E-06   0.00000000E+00
 4.75000E+01               7.77432622E-02   0.00000000E+00   0.00000000E+00   1.67872877E-06   0.00000000E+00
 4.85000E+01               7.77465242E-02   0.00000000E+00   0.00000000E+00   1.42326481E-06   0.00000000E+00
 4.95000E+01               7.77476524E-02   0.00000000E+00   0.00000000E+00   1.13656317E-06   0.00000000E+00
 5.05000E+01               7.77482530E-02   0.00000000E+00   0.00000000E+00   8.47063604E-07   0.00000000E+00
 5.15000E+01               7.77485777E-02   0.00000000E+00   0.00000000E+00   5.94984427E-07   0.00000000E+00
 5.25000E+01               7.77486434E-02   0.00000000E+00   0.00000000E+00   4.09267292E-07   0.00000000E+00
 5.35000E+01               7.77486340E-02   0.00000000E+00   0.00000000E+00   2.98420088E-07   0.00000000E+00
 5.45000E+01               7.77486153E-02   0.00000000E+00   0.00000000E+00   2.53937887E-07   0.00000000E+00
 5.55000E+01               7.77486113E-02   0.00000000E+00   0.00000000E+00   2.43822816E-07   0.00000000E+00
 5.65000E+01               7.77486107E-02   0.00000000E+00   0.00000000E+00   2.41690841E-07   0.00000000E+00
 5.75000E+01               7.77486106E-02   0.00000000E+00   0.00000000E+00   2.41246979E-07   0.00000000E+00
 5.85000E+01               7.77486106E-02   0.00000000E+00   0.00000000E+00   2.41155808E-07   0.00000000E+00
 5.95000E+01               7.77486106E-02   0.00000000E+00   0.00000000E+00   2.41137439E-07   0.00000000E+00
 6.05000E+01               7.77486106E-02   0.00000000E+00   0.00000000E+00   2.41133832E-07   0.00000000E+00
 6.15000E+01               7.77486106E-02   0.00000000E+00   0.00000000E+00   2.41133133E-07   0.00000000E+00
 6.25000E+01               7.77486106E-02   0.00000000E+00   0.00000000E+00   2.41133000E-07   0.00000000E+00
 6.35000E+01               7.77486106E-02   0.00000000E+00   0.00000000E+00   2.41132975E-07   0.00000000E+00
 6.45000E+01               7.77486106E-02   0.00000000E+00   0.00000000E+00   2.41132971E-07   0.00000000E+00
 6.55000E+01               7.77486106E-02   0.00000000E+00   0.00000000E+00   2.41132970E-07   0.00000000E+00
 6.65000E+01               7.77486106E-02   0.00000000E+00   0.00000000E+00   2.41132970E-07   0.00000000E+00
 6.75000E+01               7.77486106E-02   0.00000000E+00   0.00000000E+00   2.41132970E-07   0.00000000E+00
 6.85000E+01               7.77486106E-02   0.00000000E+00   0.00000000E+00   2.41132970E-07   0.00000000E+00
 6.95000E+01               7.77486106E-02   0.00000000E+00   0.00000000E+00   2.41132970E-07   0.00000000E+00
 7.05000E+01               7.77486106E-02   0.00000000E+00   0.00000000E+00   2.41132970E-07   0.00000000E+00
 7.15000E+01               7.77486106E-02   0.00000000E+00   0.00000000E+00   2.41132970E-07   0.00000000E+00
 7.25000E+01               7.77486106E-02   0.00000000E+00   0.00000000E+00   2.41132970E-07   0.00000000E+00
 7.35000E+01               7.77486106E-02   0.00000000E+00   0.00000000E+00   2.41132970E-07   0.00000000E+00
 7.45000E+01               7.77486106E-02   0.00000000E+00   0.00000000E+00   2.41132970E-07   0.00000000E+00
 7.55000E+01               7.77486106E-02   0.00000000E+00   0.00000000E+00   2.41132970E-07   0.00000000E+00
 7.65000E+01               7.77486106E-02   0.00000000E+00   0.00000000E+00   2.41132970E-07   0.00000000E+00
 7.75000E+01               7.77486106E-02   0.00000000E+00   0.00000000E+00   2.41132970E-07   0.00000000E+00
 7.85000E+01               7.77486106E-02   0.00000000E+00   0.00000000E+00   2.41132970E-07   0.00000000E+00
 7.95000E+01               7.77486106E-02   0.00000000E+00   0.00000000E+00   2.41132970E-07   0.00000000E+00
 8.05000E+01               7.77486106E-02   0.00000000E+00   0.00000000E+00   2.41132970E-07   0.00000000E+00
 8.15000E+01               7.77486106E-02   0.00000000E+00   0.00000000E+00   2.41132970E-07   0.00000000E+00
 8.25000E+01               7.77486106E-02   0.00000000E+00   0.00000000E+00   2.41132970E-07   0.00000000E+00
 8.35000E+01               7.77486106E-02   0.00000000E+00   0.00000000E+00   2.41132970E-07   0.00000000E+00
 8.45000E+01               7.77486106E-02   0.00000000E+00   0.00000000E+00   2.41132970E-07   0.00000000E+00
 8.55000E+01               7.77486106E-02   0.00000000E+00   0.00000000E+00   2.41132970E-07   0.00000000E+00
 8.65000E+01               7.77486106E-02   0.00000000E+00   0.00000000E+00   2.41132970E-07   0.00000000E+00
 8.75000E+01               7.77486106E-02   0.00000000E+00   0.00000000E+00   2.41132970E-07   0.00000000E+00
 8.85000E+01               7.77486106E-02   0.00000000E+00   0.00000000E+00   2.41132970E-07   0.00000000E+00
 8.95000E+01               7.77486106E-02   0.00000000E+00   0.00000000E+00   2.41132970E-07   0.00000000E+00
 9.05000E+01               7.77486106E-02   0.00000000E+00   0.00000000E+00   2.41132970E-07   0.00000000E+00
 9.15000E+01               7.77486106E-02   0.00000000E+00   0.00000000E+00   2.41132970E-07   0.00000000E+00
 9.25000E+01               7.77486106E-02   0.00000000E+00   0.00000000E+00   2.41132970E-07   0.00000000E+00
 9.35000E+01               7.77486106E-02   0.00000000E+00   0.00000000E+00   2.41132970E-07   0.00000000E+00
 9.45000E+01               7.77486106E-02   0.00000000E+00   0.00000000E+00   2.41132970E-07   0.00000000E+00
 9.55000E+01               7.77486106E-02   0.00000000E+00   0.00000000E+00   2.41132970E-07   0.00000000E+00
 9.65000E+01               7.77486106E-02   0.00000000E+00   0.00000000E+00   2.41132970E-07   0.00000000E+00
 9.75000E+01               7.77486106E-02   0.00000000E+00   0.00000000E+00   2.41132970E-07   0.00000000E+00
 9.85000E+01               7.77486106E-02   0.00000000E+00   0.00000000E+00   2.41132970E-07   0.00000000E+00
 9.95000E+01               7.77486106E-02   0.00000000E+00   0.00000000E+00   2.41132970E-07   0.00000000E+00
