# Units: Mol/kgw
 TITLE = " Years"
VARIABLES = "X (meters) ", "Tracer       ", "
 ZONE F=POINT,I=         100
 5.00000E-01               1.00000000E-03
 1.50000E+00               1.00000000E-03
 2.50000E+00               1.00000000E-03
 3.50000E+00               1.00000000E-03
 4.50000E+00               1.00000000E-03
 5.50000E+00               1.00000000E-03
 6.50000E+00               9.99999999E-04
 7.50000E+00               9.99999997E-04
 8.50000E+00               9.99999991E-04
 9.50000E+00               9.99999972E-04
 1.05000E+01               9.99999921E-04
 1.15000E+01               9.99999789E-04
 1.25000E+01               9.99999467E-04
 1.35000E+01               9.99998718E-04
 1.45000E+01               9.99997066E-04
 1.55000E+01               9.99993584E-04
 1.65000E+01               9.99986559E-04
 1.75000E+01               9.99972954E-04
 1.85000E+01               9.99947602E-04
 1.95000E+01               9.99902047E-04
 2.05000E+01               9.99822964E-04
 2.15000E+01               9.99690083E-04
 2.25000E+01               9.99473618E-04
 2.35000E+01               9.99131228E-04
 2.45000E+01               9.98604625E-04
 2.55000E+01               9.97816050E-04
 2.65000E+01               9.96664901E-04
 2.75000E+01               9.95024903E-04
 2.85000E+01               9.92742254E-04
 2.95000E+01               9.89635198E-04
 3.05000E+01               9.85495419E-04
 3.15000E+01               9.80091600E-04
 3.25000E+01               9.73175283E-04
 3.35000E+01               9.64489018E-04
 3.45000E+01               9.53776553E-04
 3.55000E+01               9.40794600E-04
 3.65000E+01               9.25325520E-04
 3.75000E+01               9.07190134E-04
 3.85000E+01               8.86259759E-04
 3.95000E+01               8.62466615E-04
 4.05000E+01               8.35811800E-04
 4.15000E+01               8.06370182E-04
 4.25000E+01               7.74291818E-04
 4.35000E+01               7.39799706E-04
 4.45000E+01               7.03183981E-04
 4.55000E+01               6.64792901E-04
 4.65000E+01               6.25021192E-04
 4.75000E+01               5.84296457E-04
 4.85000E+01               5.43064495E-04
 4.95000E+01               5.01774350E-04
 5.05000E+01               4.60863916E-04
 5.15000E+01               4.20746799E-04
 5.25000E+01               3.81801025E-04
 5.35000E+01               3.44360003E-04
 5.45000E+01               3.08705980E-04
 5.55000E+01               2.75066063E-04
 5.65000E+01               2.43610727E-04
 5.75000E+01               2.14454578E-04
 5.85000E+01               1.87659092E-04
 5.95000E+01               1.63236917E-04
 6.05000E+01               1.41157374E-04
 6.15000E+01               1.21352714E-04
 6.25000E+01               1.03724780E-04
 6.35000E+01               8.81517083E-05
 6.45000E+01               7.44943990E-05
 6.55000E+01               6.26025239E-05
 6.65000E+01               5.23199097E-05
 6.75000E+01               4.34891950E-05
 6.85000E+01               3.59557092E-05
 6.95000E+01               2.95705719E-05
 7.05000E+01               2.41930423E-05
 7.15000E+01               1.96921804E-05
 7.25000E+01               1.59478959E-05
 7.35000E+01               1.28514723E-05
 7.45000E+01               1.03056599E-05
 7.55000E+01               8.22442372E-06
 7.65000E+01               6.53243293E-06
 7.75000E+01               5.16436605E-06
 7.85000E+01               4.06409704E-06
 7.95000E+01               3.18381741E-06
 8.05000E+01               2.48313825E-06
 8.15000E+01               1.92820634E-06
 8.25000E+01               1.49085952E-06
 8.35000E+01               1.14783861E-06
 8.45000E+01               8.80066773E-07
 8.55000E+01               6.72001778E-07
 8.65000E+01               5.11062530E-07
 8.75000E+01               3.87128190E-07
 8.85000E+01               2.92106023E-07
 8.95000E+01               2.19562667E-07
 9.05000E+01               1.64412779E-07
 9.15000E+01               1.22658611E-07
 9.25000E+01               9.11741526E-08
 9.35000E+01               6.75277030E-08
 9.45000E+01               4.98371970E-08
 9.55000E+01               3.66531234E-08
 9.65000E+01               2.68644538E-08
 9.75000E+01               1.96236046E-08
 9.85000E+01               1.42882265E-08
 9.95000E+01               1.04327814E-08
