# Units: Mol/kgw
 TITLE = " Years"
VARIABLES = "X (meters)", "H+        ", "HCO3-     ", "Ca++      ", "Tracer    ", "
 ZONE F=POINT,I=         100
 5.00000E-01               9.66444E-04   1.00000E-03   1.67780E-05   1.00000E-03
 1.50000E+00               9.66444E-04   1.00000E-03   1.67780E-05   1.00000E-03
 2.50000E+00               9.66444E-04   1.00000E-03   1.67780E-05   1.00000E-03
 3.50000E+00               9.66444E-04   1.00000E-03   1.67780E-05   1.00000E-03
 4.50000E+00               9.66444E-04   1.00000E-03   1.67780E-05   1.00000E-03
 5.50000E+00               9.66444E-04   1.00000E-03   1.67780E-05   1.00000E-03
 6.50000E+00               9.66444E-04   1.00000E-03   1.67780E-05   1.00000E-03
 7.50000E+00               9.66444E-04   1.00000E-03   1.67780E-05   1.00000E-03
 8.50000E+00               9.66444E-04   1.00000E-03   1.67780E-05   1.00000E-03
 9.50000E+00               9.66443E-04   1.00000E-03   1.67791E-05   1.00000E-03
 1.05000E+01               9.66418E-04   1.00003E-03   1.68043E-05   1.00000E-03
 1.15000E+01               9.65808E-04   1.00064E-03   1.74143E-05   1.00000E-03
 1.25000E+01               9.50739E-04   1.01571E-03   3.24853E-05   1.00000E-03
 1.35000E+01               3.57236E-04   1.60942E-03   6.26092E-04   1.00000E-03
 1.45000E+01               5.37966E-05   1.91270E-03   9.29287E-04   1.00000E-03
 1.55000E+01               5.36935E-05   1.91260E-03   9.29321E-04   1.00000E-03
 1.65000E+01               5.36868E-05   1.91247E-03   9.29382E-04   1.00000E-03
 1.75000E+01               5.36887E-05   1.91240E-03   9.29478E-04   1.00000E-03
 1.85000E+01               5.36978E-05   1.91242E-03   9.29601E-04   1.00000E-03
 1.95000E+01               5.37177E-05   1.91259E-03   9.29730E-04   1.00000E-03
 2.05000E+01               5.37445E-05   1.91290E-03   9.29821E-04   9.99998E-04
 2.15000E+01               5.37667E-05   1.91321E-03   9.29845E-04   9.99990E-04
 2.25000E+01               5.37771E-05   1.91337E-03   9.29835E-04   9.99950E-04
 2.35000E+01               5.37730E-05   1.91339E-03   9.29748E-04   9.99763E-04
 2.45000E+01               5.37406E-05   1.91329E-03   9.29296E-04   9.98907E-04
 2.55000E+01               5.35806E-05   1.91267E-03   9.27269E-04   9.95080E-04
 2.65000E+01               5.28506E-05   1.90963E-03   9.18361E-04   9.78121E-04
 2.75000E+01               5.03566E-05   1.89905E-03   8.89805E-04   9.14090E-04
 2.85000E+01               4.56371E-05   1.87898E-03   8.36845E-04   7.85052E-04
 2.95000E+01               3.91161E-05   1.85146E-03   7.63966E-04   6.02320E-04
 3.05000E+01               3.18718E-05   1.82135E-03   6.83233E-04   3.99079E-04
 3.15000E+01               2.52483E-05   1.79452E-03   6.10090E-04   2.16786E-04
 3.25000E+01               2.03355E-05   1.77537E-03   5.56749E-04   8.69023E-05
 3.35000E+01               1.76075E-05   1.76536E-03   5.27751E-04   2.01492E-05
 3.45000E+01               1.68145E-05   1.76269E-03   5.19422E-04   3.23904E-06
 3.55000E+01               1.66819E-05   1.76225E-03   5.18034E-04   4.87401E-07
 3.65000E+01               1.66616E-05   1.76219E-03   5.17822E-04   7.32391E-08
 3.75000E+01               1.66586E-05   1.76218E-03   5.17790E-04   1.07710E-08
 3.85000E+01               1.66581E-05   1.76218E-03   5.17785E-04   1.42821E-09
 3.95000E+01               1.66581E-05   1.76218E-03   5.17785E-04   1.17317E-10
 4.05000E+01               1.66581E-05   1.76218E-03   5.17785E-04   8.61803E-19
 4.15000E+01               1.66581E-05   1.76218E-03   5.17785E-04   1.20437E-19
 4.25000E+01               1.66581E-05   1.76218E-03   5.17785E-04   1.73339E-20
 4.35000E+01               1.66581E-05   1.76218E-03   5.17785E-04   1.57383E-21
 4.45000E+01               1.66581E-05   1.76218E-03   5.17785E-04   9.55216E-23
 4.55000E+01               1.66581E-05   1.76218E-03   5.17785E-04   9.70800E-24
 4.65000E+01               1.66581E-05   1.76218E-03   5.17785E-04   1.10251E-24
 4.75000E+01               1.66581E-05   1.76218E-03   5.17785E-04   1.51074E-25
 4.85000E+01               1.66581E-05   1.76218E-03   5.17785E-04   2.12924E-26
 4.95000E+01               1.66581E-05   1.76218E-03   5.17785E-04   3.48016E-27
 5.05000E+01               1.66581E-05   1.76218E-03   5.17785E-04   6.26293E-28
 5.15000E+01               1.66581E-05   1.76218E-03   5.17785E-04   1.18729E-28
 5.25000E+01               1.66581E-05   1.76218E-03   5.17785E-04   2.32825E-29
 5.35000E+01               1.66581E-05   1.76218E-03   5.17785E-04   4.58248E-30
 5.45000E+01               1.66581E-05   1.76218E-03   5.17785E-04   2.07146E-30
 5.55000E+01               1.66581E-05   1.76218E-03   5.17785E-04   1.58020E-30
 5.65000E+01               1.66581E-05   1.76218E-03   5.17785E-04   1.31161E-30
 5.75000E+01               1.66581E-05   1.76218E-03   5.17785E-04   1.15614E-30
 5.85000E+01               1.66581E-05   1.76218E-03   5.17785E-04   1.07295E-30
 5.95000E+01               1.66581E-05   1.76218E-03   5.17785E-04   1.03266E-30
 6.05000E+01               1.66581E-05   1.76218E-03   5.17785E-04   1.01416E-30
 6.15000E+01               1.66581E-05   1.76218E-03   5.17785E-04   1.00594E-30
 6.25000E+01               1.66581E-05   1.76218E-03   5.17785E-04   1.00241E-30
 6.35000E+01               1.66581E-05   1.76218E-03   5.17785E-04   1.00094E-30
 6.45000E+01               1.66581E-05   1.76218E-03   5.17785E-04   1.00035E-30
 6.55000E+01               1.66581E-05   1.76218E-03   5.17785E-04   1.00013E-30
 6.65000E+01               1.66581E-05   1.76218E-03   5.17785E-04   1.00004E-30
 6.75000E+01               1.66581E-05   1.76218E-03   5.17785E-04   1.00001E-30
 6.85000E+01               1.66581E-05   1.76218E-03   5.17785E-04   1.00000E-30
 6.95000E+01               1.66581E-05   1.76218E-03   5.17785E-04   1.00000E-30
 7.05000E+01               1.66581E-05   1.76218E-03   5.17785E-04   1.00000E-30
 7.15000E+01               1.66581E-05   1.76218E-03   5.17785E-04   1.00000E-30
 7.25000E+01               1.66581E-05   1.76218E-03   5.17785E-04   1.00000E-30
 7.35000E+01               1.66581E-05   1.76218E-03   5.17785E-04   1.00000E-30
 7.45000E+01               1.66581E-05   1.76218E-03   5.17785E-04   1.00000E-30
 7.55000E+01               1.66581E-05   1.76218E-03   5.17785E-04   1.00000E-30
 7.65000E+01               1.66581E-05   1.76218E-03   5.17785E-04   1.00000E-30
 7.75000E+01               1.66581E-05   1.76218E-03   5.17785E-04   1.00000E-30
 7.85000E+01               1.66581E-05   1.76218E-03   5.17785E-04   1.00000E-30
 7.95000E+01               1.66581E-05   1.76218E-03   5.17785E-04   1.00000E-30
 8.05000E+01               1.66581E-05   1.76218E-03   5.17785E-04   1.00000E-30
 8.15000E+01               1.66581E-05   1.76218E-03   5.17785E-04   1.00000E-30
 8.25000E+01               1.66581E-05   1.76218E-03   5.17785E-04   1.00000E-30
 8.35000E+01               1.66581E-05   1.76218E-03   5.17785E-04   1.00000E-30
 8.45000E+01               1.66581E-05   1.76218E-03   5.17785E-04   1.00000E-30
 8.55000E+01               1.66581E-05   1.76218E-03   5.17785E-04   1.00000E-30
 8.65000E+01               1.66581E-05   1.76218E-03   5.17785E-04   1.00000E-30
 8.75000E+01               1.66581E-05   1.76218E-03   5.17785E-04   1.00000E-30
 8.85000E+01               1.66581E-05   1.76218E-03   5.17785E-04   1.00000E-30
 8.95000E+01               1.66581E-05   1.76218E-03   5.17785E-04   1.00000E-30
 9.05000E+01               1.66581E-05   1.76218E-03   5.17785E-04   1.00000E-30
 9.15000E+01               1.66581E-05   1.76218E-03   5.17785E-04   1.00000E-30
 9.25000E+01               1.66581E-05   1.76218E-03   5.17785E-04   1.00000E-30
 9.35000E+01               1.66581E-05   1.76218E-03   5.17785E-04   1.00000E-30
 9.45000E+01               1.66581E-05   1.76218E-03   5.17785E-04   1.00000E-30
 9.55000E+01               1.66581E-05   1.76218E-03   5.17785E-04   1.00000E-30
 9.65000E+01               1.66581E-05   1.76218E-03   5.17785E-04   1.00000E-30
 9.75000E+01               1.66581E-05   1.76218E-03   5.17785E-04   1.00000E-30
 9.85000E+01               1.66581E-05   1.76218E-03   5.17785E-04   1.00000E-30
 9.95000E+01               1.66581E-05   1.76218E-03   5.17785E-04   1.00000E-30
