# Units: Mol/kgw
 TITLE = " Years"
VARIABLES = "X (meters) ", "H+           ", "Cl-          ", "Na+          ", "NO3-         ", "Zn++         ", "
 ZONE F=POINT,I=         100
 5.00000E-01               1.21376996E-06   1.49783415E-20   1.00290153E-01   1.00293346E-01   1.00108312E-06
 1.50000E+00               1.32190089E-06   1.49783396E-20   1.00290153E-01   1.00293346E-01   9.93812325E-07
 2.50000E+00               1.52657101E-06   1.49783281E-20   1.00290153E-01   1.00293346E-01   9.81406582E-07
 3.50000E+00               1.79553854E-06   1.49782685E-20   1.00290153E-01   1.00293346E-01   9.66987424E-07
 4.50000E+00               2.11645953E-06   1.49779926E-20   1.00290153E-01   1.00293346E-01   9.52185406E-07
 5.50000E+00               2.49477258E-06   1.49768298E-20   1.00290150E-01   1.00293346E-01   9.37987658E-07
 6.50000E+00               2.94958412E-06   1.49723119E-20   1.00290141E-01   1.00293346E-01   9.24981399E-07
 7.50000E+00               3.51304527E-06   1.49559874E-20   1.00290106E-01   1.00293346E-01   9.11590231E-07
 8.50000E+00               4.23014311E-06   1.49007075E-20   1.00289988E-01   1.00293346E-01   8.90758855E-07
 9.50000E+00               5.15088813E-06   1.47238735E-20   1.00289612E-01   1.00293346E-01   8.48626341E-07
 1.05000E+01               6.30308969E-06   1.43168438E-20   1.00288746E-01   1.00293346E-01   7.69859831E-07
 1.15000E+01               7.64550056E-06   1.36654373E-20   1.00287360E-01   1.00293346E-01   6.49150160E-07
 1.25000E+01               9.03675658E-06   1.28574130E-20   1.00285640E-01   1.00293346E-01   4.99944326E-07
 1.35000E+01               1.02711842E-05   1.20566688E-20   1.00283936E-01   1.00293346E-01   3.50761594E-07
 1.45000E+01               1.11788903E-05   1.14173953E-20   1.00282576E-01   1.00293346E-01   2.30193222E-07
 1.55000E+01               1.17116663E-05   1.10103719E-20   1.00281710E-01   1.00293346E-01   1.52462831E-07
 1.65000E+01               1.19404315E-05   1.08133513E-20   1.00281290E-01   1.00293346E-01   1.14308526E-07
 1.75000E+01               1.19949911E-05   1.07544761E-20   1.00281165E-01   1.00293346E-01   1.02622921E-07
 1.85000E+01               1.20037671E-05   1.07447129E-20   1.00281144E-01   1.00293346E-01   1.00675068E-07
 1.95000E+01               1.20051990E-05   1.07431073E-20   1.00281141E-01   1.00293346E-01   1.00354434E-07
 2.05000E+01               1.20054272E-05   1.07428493E-20   1.00281140E-01   1.00293346E-01   1.00302948E-07
 2.15000E+01               1.20054623E-05   1.07428089E-20   1.00281140E-01   1.00293346E-01   1.00294899E-07
 2.25000E+01               1.20054673E-05   1.07428028E-20   1.00281140E-01   1.00293346E-01   1.00293677E-07
 2.35000E+01               1.20054680E-05   1.07428019E-20   1.00281140E-01   1.00293346E-01   1.00293496E-07
 2.45000E+01               1.20054681E-05   1.07428017E-20   1.00281140E-01   1.00293346E-01   1.00293470E-07
 2.55000E+01               1.20054681E-05   1.07428017E-20   1.00281140E-01   1.00293346E-01   1.00293466E-07
 2.65000E+01               1.20054681E-05   1.07428017E-20   1.00281140E-01   1.00293346E-01   1.00293466E-07
 2.75000E+01               1.20054681E-05   1.07428017E-20   1.00281140E-01   1.00293346E-01   1.00293466E-07
 2.85000E+01               1.20054681E-05   1.07428017E-20   1.00281140E-01   1.00293346E-01   1.00293466E-07
 2.95000E+01               1.20054681E-05   1.07428017E-20   1.00281140E-01   1.00293346E-01   1.00293466E-07
 3.05000E+01               1.20054681E-05   1.07428017E-20   1.00281140E-01   1.00293346E-01   1.00293466E-07
 3.15000E+01               1.20054681E-05   1.07428017E-20   1.00281140E-01   1.00293346E-01   1.00293466E-07
 3.25000E+01               1.20054681E-05   1.07428017E-20   1.00281140E-01   1.00293346E-01   1.00293466E-07
 3.35000E+01               1.20054681E-05   1.07428017E-20   1.00281140E-01   1.00293346E-01   1.00293466E-07
 3.45000E+01               1.20054681E-05   1.07428017E-20   1.00281140E-01   1.00293346E-01   1.00293466E-07
 3.55000E+01               1.20054681E-05   1.07428017E-20   1.00281140E-01   1.00293346E-01   1.00293466E-07
 3.65000E+01               1.20054681E-05   1.07428017E-20   1.00281140E-01   1.00293346E-01   1.00293466E-07
 3.75000E+01               1.20054681E-05   1.07428017E-20   1.00281140E-01   1.00293346E-01   1.00293466E-07
 3.85000E+01               1.20054681E-05   1.07428017E-20   1.00281140E-01   1.00293346E-01   1.00293466E-07
 3.95000E+01               1.20054681E-05   1.07428017E-20   1.00281140E-01   1.00293346E-01   1.00293466E-07
 4.05000E+01               1.20054681E-05   1.07428017E-20   1.00281140E-01   1.00293346E-01   1.00293466E-07
 4.15000E+01               1.20054681E-05   1.07428017E-20   1.00281140E-01   1.00293346E-01   1.00293466E-07
 4.25000E+01               1.20054681E-05   1.07428017E-20   1.00281140E-01   1.00293346E-01   1.00293466E-07
 4.35000E+01               1.20054681E-05   1.07428017E-20   1.00281140E-01   1.00293346E-01   1.00293466E-07
 4.45000E+01               1.20054681E-05   1.07428017E-20   1.00281140E-01   1.00293346E-01   1.00293466E-07
 4.55000E+01               1.20054681E-05   1.07428017E-20   1.00281140E-01   1.00293346E-01   1.00293466E-07
 4.65000E+01               1.20054681E-05   1.07428017E-20   1.00281140E-01   1.00293346E-01   1.00293466E-07
 4.75000E+01               1.20054681E-05   1.07428017E-20   1.00281140E-01   1.00293346E-01   1.00293466E-07
 4.85000E+01               1.20054681E-05   1.07428017E-20   1.00281140E-01   1.00293346E-01   1.00293466E-07
 4.95000E+01               1.20054681E-05   1.07428017E-20   1.00281140E-01   1.00293346E-01   1.00293466E-07
 5.05000E+01               1.20054681E-05   1.07428017E-20   1.00281140E-01   1.00293346E-01   1.00293466E-07
 5.15000E+01               1.20054681E-05   1.07428017E-20   1.00281140E-01   1.00293346E-01   1.00293466E-07
 5.25000E+01               1.20054681E-05   1.07428017E-20   1.00281140E-01   1.00293346E-01   1.00293466E-07
 5.35000E+01               1.20054681E-05   1.07428017E-20   1.00281140E-01   1.00293346E-01   1.00293466E-07
 5.45000E+01               1.20054681E-05   1.07428017E-20   1.00281140E-01   1.00293346E-01   1.00293466E-07
 5.55000E+01               1.20054681E-05   1.07428017E-20   1.00281140E-01   1.00293346E-01   1.00293466E-07
 5.65000E+01               1.20054681E-05   1.07428017E-20   1.00281140E-01   1.00293346E-01   1.00293466E-07
 5.75000E+01               1.20054681E-05   1.07428017E-20   1.00281140E-01   1.00293346E-01   1.00293466E-07
 5.85000E+01               1.20054681E-05   1.07428017E-20   1.00281140E-01   1.00293346E-01   1.00293466E-07
 5.95000E+01               1.20054681E-05   1.07428017E-20   1.00281140E-01   1.00293346E-01   1.00293466E-07
 6.05000E+01               1.20054681E-05   1.07428017E-20   1.00281140E-01   1.00293346E-01   1.00293466E-07
 6.15000E+01               1.20054681E-05   1.07428017E-20   1.00281140E-01   1.00293346E-01   1.00293466E-07
 6.25000E+01               1.20054681E-05   1.07428017E-20   1.00281140E-01   1.00293346E-01   1.00293466E-07
 6.35000E+01               1.20054681E-05   1.07428017E-20   1.00281140E-01   1.00293346E-01   1.00293466E-07
 6.45000E+01               1.20054681E-05   1.07428017E-20   1.00281140E-01   1.00293346E-01   1.00293466E-07
 6.55000E+01               1.20054681E-05   1.07428017E-20   1.00281140E-01   1.00293346E-01   1.00293466E-07
 6.65000E+01               1.20054681E-05   1.07428017E-20   1.00281140E-01   1.00293346E-01   1.00293466E-07
 6.75000E+01               1.20054681E-05   1.07428017E-20   1.00281140E-01   1.00293346E-01   1.00293466E-07
 6.85000E+01               1.20054681E-05   1.07428017E-20   1.00281140E-01   1.00293346E-01   1.00293466E-07
 6.95000E+01               1.20054681E-05   1.07428017E-20   1.00281140E-01   1.00293346E-01   1.00293466E-07
 7.05000E+01               1.20054681E-05   1.07428017E-20   1.00281140E-01   1.00293346E-01   1.00293466E-07
 7.15000E+01               1.20054681E-05   1.07428017E-20   1.00281140E-01   1.00293346E-01   1.00293466E-07
 7.25000E+01               1.20054681E-05   1.07428017E-20   1.00281140E-01   1.00293346E-01   1.00293466E-07
 7.35000E+01               1.20054681E-05   1.07428017E-20   1.00281140E-01   1.00293346E-01   1.00293466E-07
 7.45000E+01               1.20054681E-05   1.07428017E-20   1.00281140E-01   1.00293346E-01   1.00293466E-07
 7.55000E+01               1.20054681E-05   1.07428017E-20   1.00281140E-01   1.00293346E-01   1.00293466E-07
 7.65000E+01               1.20054681E-05   1.07428017E-20   1.00281140E-01   1.00293346E-01   1.00293466E-07
 7.75000E+01               1.20054681E-05   1.07428017E-20   1.00281140E-01   1.00293346E-01   1.00293466E-07
 7.85000E+01               1.20054681E-05   1.07428017E-20   1.00281140E-01   1.00293346E-01   1.00293466E-07
 7.95000E+01               1.20054681E-05   1.07428017E-20   1.00281140E-01   1.00293346E-01   1.00293466E-07
 8.05000E+01               1.20054681E-05   1.07428017E-20   1.00281140E-01   1.00293346E-01   1.00293466E-07
 8.15000E+01               1.20054681E-05   1.07428017E-20   1.00281140E-01   1.00293346E-01   1.00293466E-07
 8.25000E+01               1.20054681E-05   1.07428017E-20   1.00281140E-01   1.00293346E-01   1.00293466E-07
 8.35000E+01               1.20054681E-05   1.07428017E-20   1.00281140E-01   1.00293346E-01   1.00293466E-07
 8.45000E+01               1.20054681E-05   1.07428017E-20   1.00281140E-01   1.00293346E-01   1.00293466E-07
 8.55000E+01               1.20054681E-05   1.07428017E-20   1.00281140E-01   1.00293346E-01   1.00293466E-07
 8.65000E+01               1.20054681E-05   1.07428017E-20   1.00281140E-01   1.00293346E-01   1.00293466E-07
 8.75000E+01               1.20054681E-05   1.07428017E-20   1.00281140E-01   1.00293346E-01   1.00293466E-07
 8.85000E+01               1.20054681E-05   1.07428017E-20   1.00281140E-01   1.00293346E-01   1.00293466E-07
 8.95000E+01               1.20054681E-05   1.07428017E-20   1.00281140E-01   1.00293346E-01   1.00293466E-07
 9.05000E+01               1.20054681E-05   1.07428017E-20   1.00281140E-01   1.00293346E-01   1.00293466E-07
 9.15000E+01               1.20054681E-05   1.07428017E-20   1.00281140E-01   1.00293346E-01   1.00293466E-07
 9.25000E+01               1.20054681E-05   1.07428017E-20   1.00281140E-01   1.00293346E-01   1.00293466E-07
 9.35000E+01               1.20054681E-05   1.07428017E-20   1.00281140E-01   1.00293346E-01   1.00293466E-07
 9.45000E+01               1.20054681E-05   1.07428017E-20   1.00281140E-01   1.00293346E-01   1.00293466E-07
 9.55000E+01               1.20054681E-05   1.07428017E-20   1.00281140E-01   1.00293346E-01   1.00293466E-07
 9.65000E+01               1.20054681E-05   1.07428017E-20   1.00281140E-01   1.00293346E-01   1.00293466E-07
 9.75000E+01               1.20054681E-05   1.07428017E-20   1.00281140E-01   1.00293346E-01   1.00293466E-07
 9.85000E+01               1.20054681E-05   1.07428017E-20   1.00281140E-01   1.00293346E-01   1.00293466E-07
 9.95000E+01               1.20054681E-05   1.07428017E-20   1.00281140E-01   1.00293346E-01   1.00293466E-07
