# Units: Mol/m^3 porous medium
 TITLE = " Years"
VARIABLES = "X (meters) ", "H+           ", "Cl-          ", "Na+          ", "NO3-         ", "Zn++         ", "
 ZONE F=POINT,I=         100
 5.00000E-01               7.31146520E-02   0.00000000E+00   0.00000000E+00   0.00000000E+00   1.97103760E-04
 1.50000E+00               7.35305864E-02   0.00000000E+00   0.00000000E+00   0.00000000E+00   1.68840594E-04
 2.50000E+00               7.41612148E-02   0.00000000E+00   0.00000000E+00   0.00000000E+00   1.29169584E-04
 3.50000E+00               7.47752882E-02   0.00000000E+00   0.00000000E+00   0.00000000E+00   9.46811032E-05
 4.50000E+00               7.53056013E-02   0.00000000E+00   0.00000000E+00   0.00000000E+00   6.86156043E-05
 5.50000E+00               7.57560152E-02   0.00000000E+00   0.00000000E+00   0.00000000E+00   4.94825931E-05
 6.50000E+00               7.61444204E-02   0.00000000E+00   0.00000000E+00   0.00000000E+00   3.53728392E-05
 7.50000E+00               7.64858708E-02   0.00000000E+00   0.00000000E+00   0.00000000E+00   2.48342333E-05
 8.50000E+00               7.67887540E-02   0.00000000E+00   0.00000000E+00   0.00000000E+00   1.68791243E-05
 9.50000E+00               7.70540026E-02   0.00000000E+00   0.00000000E+00   0.00000000E+00   1.09197127E-05
 1.05000E+01               7.72767291E-02   0.00000000E+00   0.00000000E+00   0.00000000E+00   6.65054059E-06
 1.15000E+01               7.74514055E-02   0.00000000E+00   0.00000000E+00   0.00000000E+00   3.82606019E-06
 1.25000E+01               7.75775030E-02   0.00000000E+00   0.00000000E+00   0.00000000E+00   2.11464607E-06
 1.35000E+01               7.76606756E-02   0.00000000E+00   0.00000000E+00   0.00000000E+00   1.15030671E-06
 1.45000E+01               7.77100769E-02   0.00000000E+00   0.00000000E+00   0.00000000E+00   6.37881577E-07
 1.55000E+01               7.77355086E-02   0.00000000E+00   0.00000000E+00   0.00000000E+00   3.85101110E-07
 1.65000E+01               7.77457480E-02   0.00000000E+00   0.00000000E+00   0.00000000E+00   2.77823595E-07
 1.75000E+01               7.77481440E-02   0.00000000E+00   0.00000000E+00   0.00000000E+00   2.47173819E-07
 1.85000E+01               7.77485277E-02   0.00000000E+00   0.00000000E+00   0.00000000E+00   2.42125961E-07
 1.95000E+01               7.77485902E-02   0.00000000E+00   0.00000000E+00   0.00000000E+00   2.41297451E-07
 2.05000E+01               7.77486002E-02   0.00000000E+00   0.00000000E+00   0.00000000E+00   2.41164536E-07
 2.15000E+01               7.77486018E-02   0.00000000E+00   0.00000000E+00   0.00000000E+00   2.41142798E-07
 2.25000E+01               7.77486020E-02   0.00000000E+00   0.00000000E+00   0.00000000E+00   2.41140494E-07
 2.35000E+01               7.77486020E-02   0.00000000E+00   0.00000000E+00   0.00000000E+00   2.41140156E-07
 2.45000E+01               7.77486020E-02   0.00000000E+00   0.00000000E+00   0.00000000E+00   2.41140108E-07
 2.55000E+01               7.77486020E-02   0.00000000E+00   0.00000000E+00   0.00000000E+00   2.41140101E-07
 2.65000E+01               7.77486020E-02   0.00000000E+00   0.00000000E+00   0.00000000E+00   2.41140101E-07
 2.75000E+01               7.77486020E-02   0.00000000E+00   0.00000000E+00   0.00000000E+00   2.41140100E-07
 2.85000E+01               7.77486020E-02   0.00000000E+00   0.00000000E+00   0.00000000E+00   2.41140100E-07
 2.95000E+01               7.77486020E-02   0.00000000E+00   0.00000000E+00   0.00000000E+00   2.41140100E-07
 3.05000E+01               7.77486020E-02   0.00000000E+00   0.00000000E+00   0.00000000E+00   2.41140100E-07
 3.15000E+01               7.77486020E-02   0.00000000E+00   0.00000000E+00   0.00000000E+00   2.41140100E-07
 3.25000E+01               7.77486020E-02   0.00000000E+00   0.00000000E+00   0.00000000E+00   2.41140100E-07
 3.35000E+01               7.77486020E-02   0.00000000E+00   0.00000000E+00   0.00000000E+00   2.41140100E-07
 3.45000E+01               7.77486020E-02   0.00000000E+00   0.00000000E+00   0.00000000E+00   2.41140100E-07
 3.55000E+01               7.77486020E-02   0.00000000E+00   0.00000000E+00   0.00000000E+00   2.41140100E-07
 3.65000E+01               7.77486020E-02   0.00000000E+00   0.00000000E+00   0.00000000E+00   2.41140100E-07
 3.75000E+01               7.77486020E-02   0.00000000E+00   0.00000000E+00   0.00000000E+00   2.41140100E-07
 3.85000E+01               7.77486020E-02   0.00000000E+00   0.00000000E+00   0.00000000E+00   2.41140100E-07
 3.95000E+01               7.77486020E-02   0.00000000E+00   0.00000000E+00   0.00000000E+00   2.41140100E-07
 4.05000E+01               7.77486020E-02   0.00000000E+00   0.00000000E+00   0.00000000E+00   2.41140100E-07
 4.15000E+01               7.77486020E-02   0.00000000E+00   0.00000000E+00   0.00000000E+00   2.41140100E-07
 4.25000E+01               7.77486020E-02   0.00000000E+00   0.00000000E+00   0.00000000E+00   2.41140100E-07
 4.35000E+01               7.77486020E-02   0.00000000E+00   0.00000000E+00   0.00000000E+00   2.41140100E-07
 4.45000E+01               7.77486020E-02   0.00000000E+00   0.00000000E+00   0.00000000E+00   2.41140100E-07
 4.55000E+01               7.77486020E-02   0.00000000E+00   0.00000000E+00   0.00000000E+00   2.41140100E-07
 4.65000E+01               7.77486020E-02   0.00000000E+00   0.00000000E+00   0.00000000E+00   2.41140100E-07
 4.75000E+01               7.77486020E-02   0.00000000E+00   0.00000000E+00   0.00000000E+00   2.41140100E-07
 4.85000E+01               7.77486020E-02   0.00000000E+00   0.00000000E+00   0.00000000E+00   2.41140100E-07
 4.95000E+01               7.77486020E-02   0.00000000E+00   0.00000000E+00   0.00000000E+00   2.41140100E-07
 5.05000E+01               7.77486020E-02   0.00000000E+00   0.00000000E+00   0.00000000E+00   2.41140100E-07
 5.15000E+01               7.77486020E-02   0.00000000E+00   0.00000000E+00   0.00000000E+00   2.41140100E-07
 5.25000E+01               7.77486020E-02   0.00000000E+00   0.00000000E+00   0.00000000E+00   2.41140100E-07
 5.35000E+01               7.77486020E-02   0.00000000E+00   0.00000000E+00   0.00000000E+00   2.41140100E-07
 5.45000E+01               7.77486020E-02   0.00000000E+00   0.00000000E+00   0.00000000E+00   2.41140100E-07
 5.55000E+01               7.77486020E-02   0.00000000E+00   0.00000000E+00   0.00000000E+00   2.41140100E-07
 5.65000E+01               7.77486020E-02   0.00000000E+00   0.00000000E+00   0.00000000E+00   2.41140100E-07
 5.75000E+01               7.77486020E-02   0.00000000E+00   0.00000000E+00   0.00000000E+00   2.41140100E-07
 5.85000E+01               7.77486020E-02   0.00000000E+00   0.00000000E+00   0.00000000E+00   2.41140100E-07
 5.95000E+01               7.77486020E-02   0.00000000E+00   0.00000000E+00   0.00000000E+00   2.41140100E-07
 6.05000E+01               7.77486020E-02   0.00000000E+00   0.00000000E+00   0.00000000E+00   2.41140100E-07
 6.15000E+01               7.77486020E-02   0.00000000E+00   0.00000000E+00   0.00000000E+00   2.41140100E-07
 6.25000E+01               7.77486020E-02   0.00000000E+00   0.00000000E+00   0.00000000E+00   2.41140100E-07
 6.35000E+01               7.77486020E-02   0.00000000E+00   0.00000000E+00   0.00000000E+00   2.41140100E-07
 6.45000E+01               7.77486020E-02   0.00000000E+00   0.00000000E+00   0.00000000E+00   2.41140100E-07
 6.55000E+01               7.77486020E-02   0.00000000E+00   0.00000000E+00   0.00000000E+00   2.41140100E-07
 6.65000E+01               7.77486020E-02   0.00000000E+00   0.00000000E+00   0.00000000E+00   2.41140100E-07
 6.75000E+01               7.77486020E-02   0.00000000E+00   0.00000000E+00   0.00000000E+00   2.41140100E-07
 6.85000E+01               7.77486020E-02   0.00000000E+00   0.00000000E+00   0.00000000E+00   2.41140100E-07
 6.95000E+01               7.77486020E-02   0.00000000E+00   0.00000000E+00   0.00000000E+00   2.41140100E-07
 7.05000E+01               7.77486020E-02   0.00000000E+00   0.00000000E+00   0.00000000E+00   2.41140100E-07
 7.15000E+01               7.77486020E-02   0.00000000E+00   0.00000000E+00   0.00000000E+00   2.41140100E-07
 7.25000E+01               7.77486020E-02   0.00000000E+00   0.00000000E+00   0.00000000E+00   2.41140100E-07
 7.35000E+01               7.77486020E-02   0.00000000E+00   0.00000000E+00   0.00000000E+00   2.41140100E-07
 7.45000E+01               7.77486020E-02   0.00000000E+00   0.00000000E+00   0.00000000E+00   2.41140100E-07
 7.55000E+01               7.77486020E-02   0.00000000E+00   0.00000000E+00   0.00000000E+00   2.41140100E-07
 7.65000E+01               7.77486020E-02   0.00000000E+00   0.00000000E+00   0.00000000E+00   2.41140100E-07
 7.75000E+01               7.77486020E-02   0.00000000E+00   0.00000000E+00   0.00000000E+00   2.41140100E-07
 7.85000E+01               7.77486020E-02   0.00000000E+00   0.00000000E+00   0.00000000E+00   2.41140100E-07
 7.95000E+01               7.77486020E-02   0.00000000E+00   0.00000000E+00   0.00000000E+00   2.41140100E-07
 8.05000E+01               7.77486020E-02   0.00000000E+00   0.00000000E+00   0.00000000E+00   2.41140100E-07
 8.15000E+01               7.77486020E-02   0.00000000E+00   0.00000000E+00   0.00000000E+00   2.41140100E-07
 8.25000E+01               7.77486020E-02   0.00000000E+00   0.00000000E+00   0.00000000E+00   2.41140100E-07
 8.35000E+01               7.77486020E-02   0.00000000E+00   0.00000000E+00   0.00000000E+00   2.41140100E-07
 8.45000E+01               7.77486020E-02   0.00000000E+00   0.00000000E+00   0.00000000E+00   2.41140100E-07
 8.55000E+01               7.77486020E-02   0.00000000E+00   0.00000000E+00   0.00000000E+00   2.41140100E-07
 8.65000E+01               7.77486020E-02   0.00000000E+00   0.00000000E+00   0.00000000E+00   2.41140100E-07
 8.75000E+01               7.77486020E-02   0.00000000E+00   0.00000000E+00   0.00000000E+00   2.41140100E-07
 8.85000E+01               7.77486020E-02   0.00000000E+00   0.00000000E+00   0.00000000E+00   2.41140100E-07
 8.95000E+01               7.77486020E-02   0.00000000E+00   0.00000000E+00   0.00000000E+00   2.41140100E-07
 9.05000E+01               7.77486020E-02   0.00000000E+00   0.00000000E+00   0.00000000E+00   2.41140100E-07
 9.15000E+01               7.77486020E-02   0.00000000E+00   0.00000000E+00   0.00000000E+00   2.41140100E-07
 9.25000E+01               7.77486020E-02   0.00000000E+00   0.00000000E+00   0.00000000E+00   2.41140100E-07
 9.35000E+01               7.77486020E-02   0.00000000E+00   0.00000000E+00   0.00000000E+00   2.41140100E-07
 9.45000E+01               7.77486020E-02   0.00000000E+00   0.00000000E+00   0.00000000E+00   2.41140100E-07
 9.55000E+01               7.77486020E-02   0.00000000E+00   0.00000000E+00   0.00000000E+00   2.41140100E-07
 9.65000E+01               7.77486020E-02   0.00000000E+00   0.00000000E+00   0.00000000E+00   2.41140100E-07
 9.75000E+01               7.77486020E-02   0.00000000E+00   0.00000000E+00   0.00000000E+00   2.41140100E-07
 9.85000E+01               7.77486020E-02   0.00000000E+00   0.00000000E+00   0.00000000E+00   2.41140100E-07
 9.95000E+01               7.77486020E-02   0.00000000E+00   0.00000000E+00   0.00000000E+00   2.41140100E-07
