
          ---- Aqueous concentrations vs. grid blocks at specified times ----

   Unit: 
    - Aqueous species: Total concencentrations in mol/kg h2o
    - Aqueous species: Individual concentrations in mol/kg h2o
    - Surface species: Concentrations in mol/kg h2o
    - Component in dry nodes in mol/L medium
 
VARIABLES =X,        Y,       Z,  P(bar)  ,      Sg,       Sl  ,     T(C)  ,  aH2O,    pH     ,t_h2o               ,t_h+                ,t_al+3              ,t_ca+2              ,t_cl-               ,t_fe+3              ,t_hco3-             ,t_k+                ,t_mg+2              ,t_na+               ,t_sio2(aq)          ,t_so4-2             ,t_sr+2              ,t_no3-              ,t_uo2+2             ,t_hfo_woh           ,t_>k1_aloh          ,t_k1_x-             ,t_>sioh             ,al+3                ,>sioh               ,hfo_woh2+           ,hfo_wo-             ,hfo_woca+           ,hfo_womg+           ,>k1_aloh2+          ,>k1_alohna+         ,>k1_aloh2no3        ,k1_xna              ,k1_xh               ,>sioh2+             ,>sio-               ,>siona              ,hfo_ohhco3-         ,hfo_ohh2co3         ,hfo_ohuo2oh+        ,(hfo_o)2(uo2)3(oh)5-,(hfo_o)2(uo2)co3-2  ,
ZONE T= "3.500000E+01 yr"  F=POINT
      0.500      0.500     -0.050  0.5614E-05  0.4386E+00  0.5614E+00   4.000  1.0000  5.3997  0.5551E+02  0.4155E-04  0.1285E-09  0.1013E-02  0.7241E-02  0.9646E-10  0.6002E-04  0.1493E-03  0.7164E-03  0.7248E-02  0.3484E-04  0.8043E-06  0.5428E-08  0.3579E-06  0.1656E-09  0.2879E-01  0.1961E-01  0.2420E-02  0.9010E-02  0.4896E-09  0.8994E-02  0.1002E-01  0.6855E-03  0.2281E-08  0.3949E-07  0.8554E-02  0.1163E-02  0.8877E-08  0.1191E-03  0.1748E-02  0.3204E-08  0.1593E-04  0.9714E-07  0.3793E-04  0.7103E-03  0.8496E-05  0.4777E-15  0.4187E-07
      0.500      0.500     -0.150  0.5614E-05  0.4386E+00  0.5614E+00   4.000  1.0000  5.3997  0.5551E+02  0.4161E-04  0.1294E-09  0.1012E-02  0.7231E-02  0.9634E-10  0.6005E-04  0.1491E-03  0.7155E-03  0.7239E-02  0.3608E-04  0.8329E-06  0.5618E-08  0.3707E-06  0.1680E-09  0.2879E-01  0.1961E-01  0.2420E-02  0.9010E-02  0.4896E-09  0.8994E-02  0.1002E-01  0.6855E-03  0.2281E-08  0.3949E-07  0.8554E-02  0.1163E-02  0.8877E-08  0.1191E-03  0.1748E-02  0.3204E-08  0.1593E-04  0.9714E-07  0.3793E-04  0.7103E-03  0.8496E-05  0.4777E-15  0.4187E-07
      0.500      0.500     -0.250  0.5614E-05  0.4386E+00  0.5614E+00   4.000  1.0000  5.3997  0.5551E+02  0.4167E-04  0.1303E-09  0.1011E-02  0.7221E-02  0.9621E-10  0.6009E-04  0.1490E-03  0.7146E-03  0.7230E-02  0.3737E-04  0.8627E-06  0.5814E-08  0.3839E-06  0.1704E-09  0.2879E-01  0.1961E-01  0.2420E-02  0.9010E-02  0.4896E-09  0.8994E-02  0.1002E-01  0.6855E-03  0.2281E-08  0.3949E-07  0.8554E-02  0.1163E-02  0.8877E-08  0.1191E-03  0.1748E-02  0.3204E-08  0.1593E-04  0.9714E-07  0.3793E-04  0.7103E-03  0.8496E-05  0.4777E-15  0.4187E-07
      0.500      0.500     -0.350  0.5614E-05  0.4386E+00  0.5614E+00   4.000  1.0000  5.3997  0.5551E+02  0.4173E-04  0.1313E-09  0.1009E-02  0.7211E-02  0.9607E-10  0.6013E-04  0.1488E-03  0.7137E-03  0.7220E-02  0.3870E-04  0.8934E-06  0.6018E-08  0.3976E-06  0.1729E-09  0.2879E-01  0.1961E-01  0.2420E-02  0.9010E-02  0.4896E-09  0.8994E-02  0.1002E-01  0.6855E-03  0.2281E-08  0.3949E-07  0.8554E-02  0.1163E-02  0.8877E-08  0.1191E-03  0.1748E-02  0.3204E-08  0.1593E-04  0.9714E-07  0.3793E-04  0.7103E-03  0.8496E-05  0.4777E-15  0.4187E-07
      0.500      0.500     -0.450  0.5614E-05  0.4386E+00  0.5614E+00   4.000  1.0000  5.3997  0.5551E+02  0.4179E-04  0.1323E-09  0.1008E-02  0.7201E-02  0.9593E-10  0.6017E-04  0.1486E-03  0.7127E-03  0.7209E-02  0.4008E-04  0.9253E-06  0.6230E-08  0.4118E-06  0.1755E-09  0.2879E-01  0.1961E-01  0.2420E-02  0.9010E-02  0.4896E-09  0.8994E-02  0.1002E-01  0.6855E-03  0.2281E-08  0.3949E-07  0.8554E-02  0.1163E-02  0.8877E-08  0.1191E-03  0.1748E-02  0.3204E-08  0.1593E-04  0.9714E-07  0.3793E-04  0.7103E-03  0.8496E-05  0.4777E-15  0.4187E-07
      0.500      0.500     -0.550  0.5614E-05  0.4386E+00  0.5614E+00   4.000  1.0000  5.3997  0.5551E+02  0.4186E-04  0.1334E-09  0.1007E-02  0.7190E-02  0.9579E-10  0.6021E-04  0.1485E-03  0.7117E-03  0.7199E-02  0.4151E-04  0.9583E-06  0.6448E-08  0.4264E-06  0.1782E-09  0.2879E-01  0.1961E-01  0.2420E-02  0.9010E-02  0.4896E-09  0.8994E-02  0.1002E-01  0.6855E-03  0.2281E-08  0.3949E-07  0.8554E-02  0.1163E-02  0.8877E-08  0.1191E-03  0.1748E-02  0.3204E-08  0.1593E-04  0.9714E-07  0.3793E-04  0.7103E-03  0.8496E-05  0.4777E-15  0.4187E-07
      0.500      0.500     -0.650  0.5614E-05  0.4386E+00  0.5614E+00   4.000  1.0000  5.3997  0.5551E+02  0.4193E-04  0.1345E-09  0.1005E-02  0.7178E-02  0.9564E-10  0.6026E-04  0.1483E-03  0.7106E-03  0.7188E-02  0.4299E-04  0.9925E-06  0.6675E-08  0.4417E-06  0.1810E-09  0.2879E-01  0.1961E-01  0.2420E-02  0.9010E-02  0.4896E-09  0.8994E-02  0.1002E-01  0.6855E-03  0.2281E-08  0.3949E-07  0.8554E-02  0.1163E-02  0.8877E-08  0.1191E-03  0.1748E-02  0.3204E-08  0.1593E-04  0.9714E-07  0.3793E-04  0.7103E-03  0.8496E-05  0.4777E-15  0.4187E-07
      0.500      0.500     -0.750  0.5614E-05  0.4386E+00  0.5614E+00   4.000  1.0000  5.3997  0.5551E+02  0.4200E-04  0.1356E-09  0.1004E-02  0.7167E-02  0.9548E-10  0.6030E-04  0.1481E-03  0.7096E-03  0.7176E-02  0.4453E-04  0.1028E-05  0.6909E-08  0.4574E-06  0.1839E-09  0.2879E-01  0.1961E-01  0.2420E-02  0.9010E-02  0.4896E-09  0.8994E-02  0.1002E-01  0.6855E-03  0.2281E-08  0.3949E-07  0.8554E-02  0.1163E-02  0.8877E-08  0.1191E-03  0.1748E-02  0.3204E-08  0.1593E-04  0.9714E-07  0.3793E-04  0.7103E-03  0.8496E-05  0.4777E-15  0.4187E-07
      0.500      0.500     -0.850  0.5614E-05  0.4386E+00  0.5614E+00   4.000  1.0000  5.3997  0.5551E+02  0.4208E-04  0.1367E-09  0.1002E-02  0.7154E-02  0.9532E-10  0.6035E-04  0.1479E-03  0.7084E-03  0.7165E-02  0.4612E-04  0.1065E-05  0.7152E-08  0.4737E-06  0.1869E-09  0.2879E-01  0.1961E-01  0.2420E-02  0.9010E-02  0.4896E-09  0.8994E-02  0.1002E-01  0.6855E-03  0.2281E-08  0.3949E-07  0.8554E-02  0.1163E-02  0.8877E-08  0.1191E-03  0.1748E-02  0.3204E-08  0.1593E-04  0.9714E-07  0.3793E-04  0.7103E-03  0.8496E-05  0.4777E-15  0.4187E-07
      0.500      0.500     -0.950  0.5614E-05  0.4386E+00  0.5614E+00   4.000  1.0000  5.3997  0.5551E+02  0.4215E-04  0.1379E-09  0.1000E-02  0.7142E-02  0.9515E-10  0.6040E-04  0.1477E-03  0.7073E-03  0.7152E-02  0.4776E-04  0.1103E-05  0.7404E-08  0.4906E-06  0.1900E-09  0.2879E-01  0.1961E-01  0.2420E-02  0.9010E-02  0.4896E-09  0.8994E-02  0.1002E-01  0.6855E-03  0.2281E-08  0.3949E-07  0.8554E-02  0.1163E-02  0.8877E-08  0.1191E-03  0.1748E-02  0.3204E-08  0.1593E-04  0.9714E-07  0.3793E-04  0.7103E-03  0.8496E-05  0.4777E-15  0.4187E-07
      0.500      0.500     -1.050  0.5614E-05  0.4386E+00  0.5614E+00   4.000  1.0000  5.3997  0.5551E+02  0.4223E-04  0.1392E-09  0.9985E-03  0.7129E-02  0.9498E-10  0.6044E-04  0.1475E-03  0.7061E-03  0.7140E-02  0.4947E-04  0.1142E-05  0.7664E-08  0.5081E-06  0.1932E-09  0.2879E-01  0.1961E-01  0.2420E-02  0.9010E-02  0.4896E-09  0.8994E-02  0.1002E-01  0.6855E-03  0.2281E-08  0.3949E-07  0.8554E-02  0.1163E-02  0.8877E-08  0.1191E-03  0.1748E-02  0.3204E-08  0.1593E-04  0.9714E-07  0.3793E-04  0.7103E-03  0.8496E-05  0.4777E-15  0.4187E-07
      0.500      0.500     -1.150  0.5614E-05  0.4386E+00  0.5614E+00   4.000  1.0000  5.3997  0.5551E+02  0.4231E-04  0.1405E-09  0.9967E-03  0.7115E-02  0.9480E-10  0.6050E-04  0.1473E-03  0.7048E-03  0.7127E-02  0.5123E-04  0.1183E-05  0.7934E-08  0.5263E-06  0.1965E-09  0.2879E-01  0.1961E-01  0.2420E-02  0.9010E-02  0.4896E-09  0.8994E-02  0.1002E-01  0.6855E-03  0.2281E-08  0.3949E-07  0.8554E-02  0.1163E-02  0.8877E-08  0.1191E-03  0.1748E-02  0.3204E-08  0.1593E-04  0.9714E-07  0.3793E-04  0.7103E-03  0.8496E-05  0.4777E-15  0.4187E-07
      0.500      0.500     -1.250  0.5614E-05  0.4386E+00  0.5614E+00   4.000  1.0000  5.3997  0.5551E+02  0.4240E-04  0.1418E-09  0.9948E-03  0.7101E-02  0.9461E-10  0.6055E-04  0.1470E-03  0.7035E-03  0.7113E-02  0.5306E-04  0.1225E-05  0.8214E-08  0.5450E-06  0.2000E-09  0.2879E-01  0.1961E-01  0.2420E-02  0.9010E-02  0.4896E-09  0.8994E-02  0.1002E-01  0.6855E-03  0.2281E-08  0.3949E-07  0.8554E-02  0.1163E-02  0.8877E-08  0.1191E-03  0.1748E-02  0.3204E-08  0.1593E-04  0.9714E-07  0.3793E-04  0.7103E-03  0.8496E-05  0.4777E-15  0.4187E-07
      0.500      0.500     -1.350  0.5614E-05  0.4386E+00  0.5614E+00   4.000  1.0000  5.3997  0.5551E+02  0.4249E-04  0.1432E-09  0.9929E-03  0.7087E-02  0.9442E-10  0.6061E-04  0.1468E-03  0.7022E-03  0.7099E-02  0.5495E-04  0.1269E-05  0.8503E-08  0.5645E-06  0.2035E-09  0.2879E-01  0.1961E-01  0.2420E-02  0.9010E-02  0.4896E-09  0.8994E-02  0.1002E-01  0.6855E-03  0.2281E-08  0.3949E-07  0.8554E-02  0.1163E-02  0.8877E-08  0.1191E-03  0.1748E-02  0.3204E-08  0.1593E-04  0.9714E-07  0.3793E-04  0.7103E-03  0.8496E-05  0.4777E-15  0.4187E-07
      0.500      0.500     -1.450  0.5614E-05  0.4386E+00  0.5614E+00   4.000  1.0000  5.3997  0.5551E+02  0.4258E-04  0.1446E-09  0.9909E-03  0.7072E-02  0.9422E-10  0.6066E-04  0.1466E-03  0.7008E-03  0.7084E-02  0.5691E-04  0.1314E-05  0.8803E-08  0.5846E-06  0.2072E-09  0.2879E-01  0.1961E-01  0.2420E-02  0.9010E-02  0.4896E-09  0.8994E-02  0.1002E-01  0.6855E-03  0.2281E-08  0.3949E-07  0.8554E-02  0.1163E-02  0.8877E-08  0.1191E-03  0.1748E-02  0.3204E-08  0.1593E-04  0.9714E-07  0.3793E-04  0.7103E-03  0.8496E-05  0.4777E-15  0.4187E-07
      0.500      0.500     -1.550  0.5614E-05  0.4386E+00  0.5614E+00   4.000  1.0000  5.3997  0.5551E+02  0.4267E-04  0.1461E-09  0.9888E-03  0.7056E-02  0.9402E-10  0.6072E-04  0.1463E-03  0.6994E-03  0.7069E-02  0.5894E-04  0.1361E-05  0.9114E-08  0.6055E-06  0.2111E-09  0.2879E-01  0.1961E-01  0.2420E-02  0.9010E-02  0.4896E-09  0.8994E-02  0.1002E-01  0.6855E-03  0.2281E-08  0.3949E-07  0.8554E-02  0.1163E-02  0.8877E-08  0.1191E-03  0.1748E-02  0.3204E-08  0.1593E-04  0.9714E-07  0.3793E-04  0.7103E-03  0.8496E-05  0.4777E-15  0.4187E-07
      0.500      0.500     -1.650  0.5615E-05  0.4385E+00  0.5615E+00   4.000  1.0000  5.3997  0.5551E+02  0.4277E-04  0.1477E-09  0.9867E-03  0.7040E-02  0.9380E-10  0.6078E-04  0.1461E-03  0.6979E-03  0.7054E-02  0.6105E-04  0.1409E-05  0.9435E-08  0.6271E-06  0.2150E-09  0.2879E-01  0.1961E-01  0.2420E-02  0.9010E-02  0.4896E-09  0.8994E-02  0.1002E-01  0.6855E-03  0.2281E-08  0.3949E-07  0.8554E-02  0.1163E-02  0.8877E-08  0.1191E-03  0.1748E-02  0.3204E-08  0.1593E-04  0.9714E-07  0.3793E-04  0.7103E-03  0.8496E-05  0.4777E-15  0.4187E-07
      0.500      0.500     -1.750  0.5615E-05  0.4385E+00  0.5615E+00   4.000  1.0000  5.3997  0.5551E+02  0.4287E-04  0.1493E-09  0.9844E-03  0.7024E-02  0.9358E-10  0.6085E-04  0.1458E-03  0.6964E-03  0.7038E-02  0.6322E-04  0.1459E-05  0.9768E-08  0.6494E-06  0.2191E-09  0.2879E-01  0.1961E-01  0.2420E-02  0.9010E-02  0.4896E-09  0.8994E-02  0.1002E-01  0.6855E-03  0.2281E-08  0.3949E-07  0.8554E-02  0.1163E-02  0.8877E-08  0.1191E-03  0.1748E-02  0.3204E-08  0.1593E-04  0.9714E-07  0.3793E-04  0.7103E-03  0.8496E-05  0.4777E-15  0.4187E-07
      0.500      0.500     -1.850  0.5615E-05  0.4385E+00  0.5615E+00   4.000  1.0000  5.3997  0.5551E+02  0.4298E-04  0.1509E-09  0.9821E-03  0.7006E-02  0.9335E-10  0.6091E-04  0.1455E-03  0.6948E-03  0.7021E-02  0.6548E-04  0.1512E-05  0.1011E-07  0.6726E-06  0.2234E-09  0.2879E-01  0.1961E-01  0.2420E-02  0.9010E-02  0.4896E-09  0.8994E-02  0.1002E-01  0.6855E-03  0.2281E-08  0.3949E-07  0.8554E-02  0.1163E-02  0.8877E-08  0.1191E-03  0.1748E-02  0.3204E-08  0.1593E-04  0.9714E-07  0.3793E-04  0.7103E-03  0.8496E-05  0.4777E-15  0.4187E-07
      0.500      0.500     -1.950  0.5615E-05  0.4385E+00  0.5615E+00   4.000  1.0000  5.3997  0.5551E+02  0.4309E-04  0.1526E-09  0.9798E-03  0.6988E-02  0.9312E-10  0.6098E-04  0.1452E-03  0.6931E-03  0.7004E-02  0.6782E-04  0.1565E-05  0.1047E-07  0.6966E-06  0.2278E-09  0.2879E-01  0.1961E-01  0.2420E-02  0.9010E-02  0.4896E-09  0.8994E-02  0.1002E-01  0.6855E-03  0.2281E-08  0.3949E-07  0.8554E-02  0.1163E-02  0.8877E-08  0.1191E-03  0.1748E-02  0.3204E-08  0.1593E-04  0.9714E-07  0.3793E-04  0.7103E-03  0.8496E-05  0.4777E-15  0.4187E-07
      0.500      0.500     -2.050  0.5615E-05  0.4385E+00  0.5615E+00   4.000  1.0000  5.3997  0.5551E+02  0.4320E-04  0.1544E-09  0.9773E-03  0.6970E-02  0.9287E-10  0.6105E-04  0.1449E-03  0.6914E-03  0.6986E-02  0.7024E-04  0.1621E-05  0.1084E-07  0.7214E-06  0.2323E-09  0.2879E-01  0.1961E-01  0.2420E-02  0.9010E-02  0.4896E-09  0.8994E-02  0.1002E-01  0.6855E-03  0.2281E-08  0.3949E-07  0.8554E-02  0.1163E-02  0.8877E-08  0.1191E-03  0.1748E-02  0.3204E-08  0.1593E-04  0.9714E-07  0.3793E-04  0.7103E-03  0.8496E-05  0.4777E-15  0.4187E-07
      0.500      0.500     -2.150  0.5615E-05  0.4385E+00  0.5615E+00   4.000  1.0000  5.3997  0.5551E+02  0.4332E-04  0.1562E-09  0.9747E-03  0.6951E-02  0.9262E-10  0.6112E-04  0.1446E-03  0.6896E-03  0.6967E-02  0.7274E-04  0.1679E-05  0.1122E-07  0.7472E-06  0.2371E-09  0.2879E-01  0.1961E-01  0.2420E-02  0.9010E-02  0.4896E-09  0.8994E-02  0.1002E-01  0.6855E-03  0.2281E-08  0.3949E-07  0.8554E-02  0.1163E-02  0.8877E-08  0.1191E-03  0.1748E-02  0.3204E-08  0.1593E-04  0.9714E-07  0.3793E-04  0.7103E-03  0.8496E-05  0.4777E-15  0.4187E-07
      0.500      0.500     -2.250  0.5615E-05  0.4385E+00  0.5615E+00   4.000  1.0000  5.3997  0.5551E+02  0.4344E-04  0.1581E-09  0.9721E-03  0.6931E-02  0.9235E-10  0.6120E-04  0.1443E-03  0.6878E-03  0.6948E-02  0.7534E-04  0.1739E-05  0.1162E-07  0.7738E-06  0.2419E-09  0.2879E-01  0.1961E-01  0.2420E-02  0.9010E-02  0.4896E-09  0.8994E-02  0.1002E-01  0.6855E-03  0.2281E-08  0.3949E-07  0.8554E-02  0.1163E-02  0.8877E-08  0.1191E-03  0.1748E-02  0.3204E-08  0.1593E-04  0.9714E-07  0.3793E-04  0.7103E-03  0.8496E-05  0.4777E-15  0.4187E-07
      0.500      0.500     -2.350  0.5615E-05  0.4385E+00  0.5615E+00   4.000  1.0000  5.3997  0.5551E+02  0.4356E-04  0.1601E-09  0.9693E-03  0.6910E-02  0.9208E-10  0.6128E-04  0.1440E-03  0.6859E-03  0.6928E-02  0.7803E-04  0.1801E-05  0.1203E-07  0.8014E-06  0.2470E-09  0.2879E-01  0.1961E-01  0.2420E-02  0.9010E-02  0.4896E-09  0.8994E-02  0.1002E-01  0.6855E-03  0.2281E-08  0.3949E-07  0.8554E-02  0.1163E-02  0.8877E-08  0.1191E-03  0.1748E-02  0.3204E-08  0.1593E-04  0.9714E-07  0.3793E-04  0.7103E-03  0.8496E-05  0.4777E-15  0.4187E-07
      0.500      0.500     -2.450  0.5615E-05  0.4385E+00  0.5615E+00   4.000  1.0000  5.3997  0.5551E+02  0.4369E-04  0.1621E-09  0.9665E-03  0.6889E-02  0.9180E-10  0.6136E-04  0.1436E-03  0.6839E-03  0.6907E-02  0.8081E-04  0.1865E-05  0.1246E-07  0.8300E-06  0.2523E-09  0.2879E-01  0.1961E-01  0.2420E-02  0.9010E-02  0.4896E-09  0.8994E-02  0.1002E-01  0.6855E-03  0.2281E-08  0.3949E-07  0.8554E-02  0.1163E-02  0.8877E-08  0.1191E-03  0.1748E-02  0.3204E-08  0.1593E-04  0.9714E-07  0.3793E-04  0.7103E-03  0.8496E-05  0.4777E-15  0.4187E-07
      0.500      0.500     -2.550  0.5615E-05  0.4385E+00  0.5615E+00   4.000  1.0000  5.3997  0.5551E+02  0.4383E-04  0.1642E-09  0.9636E-03  0.6867E-02  0.9150E-10  0.6144E-04  0.1433E-03  0.6819E-03  0.6886E-02  0.8369E-04  0.1932E-05  0.1290E-07  0.8596E-06  0.2577E-09  0.2879E-01  0.1961E-01  0.2420E-02  0.9010E-02  0.4896E-09  0.8994E-02  0.1002E-01  0.6855E-03  0.2281E-08  0.3949E-07  0.8554E-02  0.1163E-02  0.8877E-08  0.1191E-03  0.1748E-02  0.3204E-08  0.1593E-04  0.9714E-07  0.3793E-04  0.7103E-03  0.8496E-05  0.4777E-15  0.4187E-07
      0.500      0.500     -2.650  0.5615E-05  0.4385E+00  0.5615E+00   4.000  1.0000  5.3997  0.5551E+02  0.4396E-04  0.1664E-09  0.9605E-03  0.6844E-02  0.9120E-10  0.6153E-04  0.1429E-03  0.6798E-03  0.6863E-02  0.8668E-04  0.2001E-05  0.1335E-07  0.8903E-06  0.2633E-09  0.2879E-01  0.1961E-01  0.2420E-02  0.9010E-02  0.4896E-09  0.8994E-02  0.1002E-01  0.6855E-03  0.2281E-08  0.3949E-07  0.8554E-02  0.1163E-02  0.8877E-08  0.1191E-03  0.1748E-02  0.3204E-08  0.1593E-04  0.9714E-07  0.3793E-04  0.7103E-03  0.8496E-05  0.4777E-15  0.4187E-07
      0.500      0.500     -2.750  0.5615E-05  0.4385E+00  0.5615E+00   4.000  1.0000  5.3997  0.5551E+02  0.4411E-04  0.1687E-09  0.9573E-03  0.6821E-02  0.9089E-10  0.6162E-04  0.1425E-03  0.6776E-03  0.6841E-02  0.8977E-04  0.2072E-05  0.1383E-07  0.9221E-06  0.2691E-09  0.2879E-01  0.1961E-01  0.2420E-02  0.9010E-02  0.4896E-09  0.8994E-02  0.1002E-01  0.6855E-03  0.2281E-08  0.3949E-07  0.8554E-02  0.1163E-02  0.8877E-08  0.1191E-03  0.1748E-02  0.3204E-08  0.1593E-04  0.9714E-07  0.3793E-04  0.7103E-03  0.8496E-05  0.4777E-15  0.4187E-07
      0.500      0.500     -2.850  0.5615E-05  0.4385E+00  0.5615E+00   4.000  1.0000  5.3997  0.5551E+02  0.4426E-04  0.1710E-09  0.9541E-03  0.6796E-02  0.9056E-10  0.6172E-04  0.1421E-03  0.6754E-03  0.6817E-02  0.9297E-04  0.2146E-05  0.1432E-07  0.9549E-06  0.2752E-09  0.2879E-01  0.1961E-01  0.2420E-02  0.9010E-02  0.4896E-09  0.8994E-02  0.1002E-01  0.6855E-03  0.2281E-08  0.3949E-07  0.8554E-02  0.1163E-02  0.8877E-08  0.1191E-03  0.1748E-02  0.3204E-08  0.1593E-04  0.9714E-07  0.3793E-04  0.7103E-03  0.8496E-05  0.4777E-15  0.4187E-07
      0.500      0.500     -2.950  0.5615E-05  0.4385E+00  0.5615E+00   4.000  1.0000  5.3997  0.5551E+02  0.4441E-04  0.1734E-09  0.9507E-03  0.6771E-02  0.9023E-10  0.6181E-04  0.1417E-03  0.6730E-03  0.6792E-02  0.9629E-04  0.2223E-05  0.1482E-07  0.9890E-06  0.2814E-09  0.2879E-01  0.1961E-01  0.2420E-02  0.9010E-02  0.4896E-09  0.8994E-02  0.1002E-01  0.6855E-03  0.2281E-08  0.3949E-07  0.8554E-02  0.1163E-02  0.8877E-08  0.1191E-03  0.1748E-02  0.3204E-08  0.1593E-04  0.9714E-07  0.3793E-04  0.7103E-03  0.8496E-05  0.4777E-15  0.4187E-07
      0.500      0.500     -3.050  0.5615E-05  0.4385E+00  0.5615E+00   4.000  1.0000  5.3997  0.5551E+02  0.4457E-04  0.1760E-09  0.9472E-03  0.6744E-02  0.8988E-10  0.6191E-04  0.1413E-03  0.6706E-03  0.6767E-02  0.9973E-04  0.2302E-05  0.1535E-07  0.1024E-05  0.2879E-09  0.2879E-01  0.1961E-01  0.2420E-02  0.9010E-02  0.4896E-09  0.8994E-02  0.1002E-01  0.6855E-03  0.2281E-08  0.3949E-07  0.8554E-02  0.1163E-02  0.8877E-08  0.1191E-03  0.1748E-02  0.3204E-08  0.1593E-04  0.9714E-07  0.3793E-04  0.7103E-03  0.8496E-05  0.4777E-15  0.4187E-07
      0.500      0.500     -3.150  0.5615E-05  0.4385E+00  0.5615E+00   4.000  1.0000  5.3997  0.5551E+02  0.4474E-04  0.1786E-09  0.9436E-03  0.6717E-02  0.8952E-10  0.6202E-04  0.1408E-03  0.6681E-03  0.6740E-02  0.1033E-03  0.2384E-05  0.1589E-07  0.1061E-05  0.2946E-09  0.2879E-01  0.1961E-01  0.2420E-02  0.9010E-02  0.4896E-09  0.8994E-02  0.1002E-01  0.6855E-03  0.2281E-08  0.3949E-07  0.8554E-02  0.1163E-02  0.8877E-08  0.1191E-03  0.1748E-02  0.3204E-08  0.1593E-04  0.9714E-07  0.3793E-04  0.7103E-03  0.8496E-05  0.4777E-15  0.4187E-07
      0.500      0.500     -3.250  0.5615E-05  0.4385E+00  0.5615E+00   4.000  1.0000  5.3997  0.5551E+02  0.4491E-04  0.1813E-09  0.9398E-03  0.6689E-02  0.8914E-10  0.6212E-04  0.1404E-03  0.6655E-03  0.6713E-02  0.1070E-03  0.2469E-05  0.1646E-07  0.1099E-05  0.3015E-09  0.2879E-01  0.1961E-01  0.2420E-02  0.9010E-02  0.4896E-09  0.8994E-02  0.1002E-01  0.6855E-03  0.2281E-08  0.3949E-07  0.8554E-02  0.1163E-02  0.8877E-08  0.1191E-03  0.1748E-02  0.3204E-08  0.1593E-04  0.9714E-07  0.3793E-04  0.7103E-03  0.8496E-05  0.4777E-15  0.4187E-07
      0.500      0.500     -3.350  0.5615E-05  0.4385E+00  0.5615E+00   4.000  1.0000  5.3997  0.5551E+02  0.4509E-04  0.1840E-09  0.9359E-03  0.6660E-02  0.8875E-10  0.6224E-04  0.1399E-03  0.6628E-03  0.6684E-02  0.1108E-03  0.2557E-05  0.1704E-07  0.1138E-05  0.3087E-09  0.2879E-01  0.1961E-01  0.2420E-02  0.9010E-02  0.4896E-09  0.8994E-02  0.1002E-01  0.6855E-03  0.2281E-08  0.3949E-07  0.8554E-02  0.1163E-02  0.8877E-08  0.1191E-03  0.1748E-02  0.3204E-08  0.1593E-04  0.9714E-07  0.3793E-04  0.7103E-03  0.8496E-05  0.4777E-15  0.4187E-07
      0.500      0.500     -3.450  0.5615E-05  0.4385E+00  0.5615E+00   4.000  1.0000  5.3997  0.5551E+02  0.4527E-04  0.1869E-09  0.9319E-03  0.6630E-02  0.8835E-10  0.6235E-04  0.1394E-03  0.6600E-03  0.6655E-02  0.1147E-03  0.2648E-05  0.1765E-07  0.1178E-05  0.3162E-09  0.2879E-01  0.1961E-01  0.2420E-02  0.9010E-02  0.4896E-09  0.8994E-02  0.1002E-01  0.6855E-03  0.2281E-08  0.3949E-07  0.8554E-02  0.1163E-02  0.8877E-08  0.1191E-03  0.1748E-02  0.3204E-08  0.1593E-04  0.9714E-07  0.3793E-04  0.7103E-03  0.8496E-05  0.4777E-15  0.4187E-07
      0.500      0.500     -3.550  0.5615E-05  0.4385E+00  0.5615E+00   4.000  1.0000  5.3997  0.5551E+02  0.4546E-04  0.1899E-09  0.9277E-03  0.6598E-02  0.8794E-10  0.6247E-04  0.1389E-03  0.6571E-03  0.6625E-02  0.1188E-03  0.2743E-05  0.1827E-07  0.1220E-05  0.3239E-09  0.2879E-01  0.1961E-01  0.2420E-02  0.9010E-02  0.4896E-09  0.8994E-02  0.1002E-01  0.6855E-03  0.2281E-08  0.3949E-07  0.8554E-02  0.1163E-02  0.8877E-08  0.1191E-03  0.1748E-02  0.3204E-08  0.1593E-04  0.9714E-07  0.3793E-04  0.7103E-03  0.8496E-05  0.4777E-15  0.4187E-07
      0.500      0.500     -3.650  0.5615E-05  0.4385E+00  0.5615E+00   4.000  1.0000  5.3997  0.5551E+02  0.4566E-04  0.1930E-09  0.9233E-03  0.6566E-02  0.8751E-10  0.6259E-04  0.1384E-03  0.6541E-03  0.6593E-02  0.1231E-03  0.2841E-05  0.1892E-07  0.1264E-05  0.3319E-09  0.2879E-01  0.1961E-01  0.2420E-02  0.9010E-02  0.4896E-09  0.8994E-02  0.1002E-01  0.6855E-03  0.2281E-08  0.3949E-07  0.8554E-02  0.1163E-02  0.8877E-08  0.1191E-03  0.1748E-02  0.3204E-08  0.1593E-04  0.9714E-07  0.3793E-04  0.7103E-03  0.8496E-05  0.4777E-15  0.4187E-07
      0.500      0.500     -3.750  0.5615E-05  0.4385E+00  0.5615E+00   4.000  1.0000  5.3997  0.5551E+02  0.4586E-04  0.1962E-09  0.9189E-03  0.6532E-02  0.8706E-10  0.6272E-04  0.1378E-03  0.6510E-03  0.6561E-02  0.1275E-03  0.2942E-05  0.1959E-07  0.1309E-05  0.3402E-09  0.2879E-01  0.1961E-01  0.2420E-02  0.9010E-02  0.4896E-09  0.8994E-02  0.1002E-01  0.6855E-03  0.2281E-08  0.3949E-07  0.8554E-02  0.1163E-02  0.8877E-08  0.1191E-03  0.1748E-02  0.3204E-08  0.1593E-04  0.9714E-07  0.3793E-04  0.7103E-03  0.8496E-05  0.4777E-15  0.4187E-07
      0.500      0.500     -3.850  0.5616E-05  0.4384E+00  0.5616E+00   4.000  1.0000  5.3997  0.5551E+02  0.4608E-04  0.1996E-09  0.9142E-03  0.6498E-02  0.8660E-10  0.6286E-04  0.1373E-03  0.6478E-03  0.6527E-02  0.1320E-03  0.3047E-05  0.2029E-07  0.1356E-05  0.3487E-09  0.2879E-01  0.1961E-01  0.2420E-02  0.9010E-02  0.4896E-09  0.8994E-02  0.1002E-01  0.6855E-03  0.2281E-08  0.3949E-07  0.8554E-02  0.1163E-02  0.8877E-08  0.1191E-03  0.1748E-02  0.3204E-08  0.1593E-04  0.9714E-07  0.3793E-04  0.7103E-03  0.8496E-05  0.4777E-15  0.4187E-07
      0.500      0.500     -3.950  0.5616E-05  0.4384E+00  0.5616E+00   4.000  1.0000  5.3997  0.5551E+02  0.4630E-04  0.2030E-09  0.9094E-03  0.6462E-02  0.8612E-10  0.6299E-04  0.1367E-03  0.6445E-03  0.6492E-02  0.1367E-03  0.3156E-05  0.2101E-07  0.1404E-05  0.3576E-09  0.2879E-01  0.1961E-01  0.2420E-02  0.9010E-02  0.4896E-09  0.8994E-02  0.1002E-01  0.6855E-03  0.2281E-08  0.3949E-07  0.8554E-02  0.1163E-02  0.8877E-08  0.1191E-03  0.1748E-02  0.3204E-08  0.1593E-04  0.9714E-07  0.3793E-04  0.7103E-03  0.8496E-05  0.4777E-15  0.4187E-07
      0.500      0.500     -4.050  0.5616E-05  0.4384E+00  0.5616E+00   4.000  1.0000  5.3997  0.5551E+02  0.4652E-04  0.2066E-09  0.9044E-03  0.6424E-02  0.8563E-10  0.6314E-04  0.1361E-03  0.6410E-03  0.6456E-02  0.1416E-03  0.3268E-05  0.2175E-07  0.1454E-05  0.3668E-09  0.2879E-01  0.1961E-01  0.2420E-02  0.9010E-02  0.4896E-09  0.8994E-02  0.1002E-01  0.6855E-03  0.2281E-08  0.3949E-07  0.8554E-02  0.1163E-02  0.8877E-08  0.1191E-03  0.1748E-02  0.3204E-08  0.1593E-04  0.9714E-07  0.3793E-04  0.7103E-03  0.8496E-05  0.4777E-15  0.4187E-07
      0.500      0.500     -4.150  0.5616E-05  0.4384E+00  0.5616E+00   4.000  1.0000  5.3997  0.5551E+02  0.4676E-04  0.2103E-09  0.8993E-03  0.6386E-02  0.8512E-10  0.6328E-04  0.1355E-03  0.6375E-03  0.6418E-02  0.1466E-03  0.3385E-05  0.2252E-07  0.1506E-05  0.3763E-09  0.2879E-01  0.1961E-01  0.2420E-02  0.9010E-02  0.4896E-09  0.8994E-02  0.1002E-01  0.6855E-03  0.2281E-08  0.3949E-07  0.8554E-02  0.1163E-02  0.8877E-08  0.1191E-03  0.1748E-02  0.3204E-08  0.1593E-04  0.9714E-07  0.3793E-04  0.7103E-03  0.8496E-05  0.4777E-15  0.4187E-07
      0.500      0.500     -4.250  0.5616E-05  0.4384E+00  0.5616E+00   4.000  1.0000  5.3997  0.5551E+02  0.4700E-04  0.2141E-09  0.8939E-03  0.6346E-02  0.8458E-10  0.6344E-04  0.1348E-03  0.6338E-03  0.6379E-02  0.1519E-03  0.3506E-05  0.2332E-07  0.1560E-05  0.3862E-09  0.2879E-01  0.1961E-01  0.2420E-02  0.9010E-02  0.4896E-09  0.8994E-02  0.1002E-01  0.6855E-03  0.2281E-08  0.3949E-07  0.8554E-02  0.1163E-02  0.8877E-08  0.1191E-03  0.1748E-02  0.3204E-08  0.1593E-04  0.9714E-07  0.3793E-04  0.7103E-03  0.8496E-05  0.4777E-15  0.4187E-07
      0.500      0.500     -4.350  0.5617E-05  0.4383E+00  0.5617E+00   4.000  1.0000  5.3997  0.5551E+02  0.4725E-04  0.2181E-09  0.8884E-03  0.6304E-02  0.8403E-10  0.6359E-04  0.1342E-03  0.6299E-03  0.6339E-02  0.1573E-03  0.3631E-05  0.2415E-07  0.1615E-05  0.3964E-09  0.2879E-01  0.1961E-01  0.2420E-02  0.9010E-02  0.4896E-09  0.8994E-02  0.1002E-01  0.6855E-03  0.2281E-08  0.3949E-07  0.8554E-02  0.1163E-02  0.8877E-08  0.1191E-03  0.1748E-02  0.3204E-08  0.1593E-04  0.9714E-07  0.3793E-04  0.7103E-03  0.8496E-05  0.4777E-15  0.4187E-07
      0.500      0.500     -4.450  0.5617E-05  0.4383E+00  0.5617E+00   4.000  1.0000  5.3997  0.5551E+02  0.4751E-04  0.2222E-09  0.8827E-03  0.6261E-02  0.8346E-10  0.6376E-04  0.1335E-03  0.6260E-03  0.6298E-02  0.1629E-03  0.3760E-05  0.2501E-07  0.1673E-05  0.4069E-09  0.2879E-01  0.1961E-01  0.2420E-02  0.9010E-02  0.4896E-09  0.8994E-02  0.1002E-01  0.6855E-03  0.2281E-08  0.3949E-07  0.8554E-02  0.1163E-02  0.8877E-08  0.1191E-03  0.1748E-02  0.3204E-08  0.1593E-04  0.9714E-07  0.3793E-04  0.7103E-03  0.8496E-05  0.4777E-15  0.4187E-07
      0.500      0.500     -4.550  0.5617E-05  0.4383E+00  0.5617E+00   4.000  1.0000  5.3997  0.5551E+02  0.4779E-04  0.2264E-09  0.8768E-03  0.6217E-02  0.8288E-10  0.6393E-04  0.1327E-03  0.6219E-03  0.6254E-02  0.1687E-03  0.3894E-05  0.2590E-07  0.1733E-05  0.4179E-09  0.2879E-01  0.1961E-01  0.2420E-02  0.9010E-02  0.4896E-09  0.8994E-02  0.1002E-01  0.6855E-03  0.2281E-08  0.3949E-07  0.8554E-02  0.1163E-02  0.8877E-08  0.1191E-03  0.1748E-02  0.3204E-08  0.1593E-04  0.9714E-07  0.3793E-04  0.7103E-03  0.8496E-05  0.4777E-15  0.4187E-07
      0.500      0.500     -4.650  0.5618E-05  0.4382E+00  0.5618E+00   4.000  1.0000  5.3997  0.5551E+02  0.4807E-04  0.2308E-09  0.8706E-03  0.6171E-02  0.8226E-10  0.6410E-04  0.1320E-03  0.6176E-03  0.6210E-02  0.1747E-03  0.4033E-05  0.2682E-07  0.1795E-05  0.4292E-09  0.2879E-01  0.1961E-01  0.2420E-02  0.9010E-02  0.4896E-09  0.8994E-02  0.1002E-01  0.6855E-03  0.2281E-08  0.3949E-07  0.8554E-02  0.1163E-02  0.8877E-08  0.1191E-03  0.1748E-02  0.3204E-08  0.1593E-04  0.9714E-07  0.3793E-04  0.7103E-03  0.8496E-05  0.4777E-15  0.4187E-07
      0.500      0.500     -4.750  0.5618E-05  0.4382E+00  0.5618E+00   4.000  1.0000  5.3997  0.5551E+02  0.4836E-04  0.2354E-09  0.8643E-03  0.6123E-02  0.8163E-10  0.6429E-04  0.1312E-03  0.6132E-03  0.6164E-02  0.1810E-03  0.4177E-05  0.2777E-07  0.1859E-05  0.4409E-09  0.2879E-01  0.1961E-01  0.2420E-02  0.9010E-02  0.4896E-09  0.8994E-02  0.1002E-01  0.6855E-03  0.2281E-08  0.3949E-07  0.8554E-02  0.1163E-02  0.8877E-08  0.1191E-03  0.1748E-02  0.3204E-08  0.1593E-04  0.9714E-07  0.3793E-04  0.7103E-03  0.8496E-05  0.4777E-15  0.4187E-07
      0.500      0.500     -4.850  0.5619E-05  0.4381E+00  0.5619E+00   4.000  1.0000  5.3997  0.5551E+02  0.4866E-04  0.2401E-09  0.8577E-03  0.6074E-02  0.8098E-10  0.6447E-04  0.1304E-03  0.6087E-03  0.6116E-02  0.1874E-03  0.4326E-05  0.2876E-07  0.1925E-05  0.4531E-09  0.2879E-01  0.1961E-01  0.2420E-02  0.9010E-02  0.4896E-09  0.8994E-02  0.1002E-01  0.6855E-03  0.2281E-08  0.3949E-07  0.8554E-02  0.1163E-02  0.8877E-08  0.1191E-03  0.1748E-02  0.3204E-08  0.1593E-04  0.9714E-07  0.3793E-04  0.7103E-03  0.8496E-05  0.4777E-15  0.4187E-07
      0.500      0.500     -4.950  0.5619E-05  0.4381E+00  0.5619E+00   4.000  1.0000  5.3997  0.5551E+02  0.4897E-04  0.2450E-09  0.8508E-03  0.6023E-02  0.8030E-10  0.6467E-04  0.1296E-03  0.6040E-03  0.6066E-02  0.1941E-03  0.4480E-05  0.2978E-07  0.1993E-05  0.4657E-09  0.2879E-01  0.1961E-01  0.2420E-02  0.9010E-02  0.4896E-09  0.8994E-02  0.1002E-01  0.6855E-03  0.2281E-08  0.3949E-07  0.8554E-02  0.1163E-02  0.8877E-08  0.1191E-03  0.1748E-02  0.3204E-08  0.1593E-04  0.9714E-07  0.3793E-04  0.7103E-03  0.8496E-05  0.4777E-15  0.4187E-07
      0.500      0.500     -5.050  0.5620E-05  0.4380E+00  0.5620E+00   4.000  1.0000  5.3997  0.5551E+02  0.4929E-04  0.2500E-09  0.8438E-03  0.5970E-02  0.7960E-10  0.6487E-04  0.1287E-03  0.5991E-03  0.6015E-02  0.2010E-03  0.4640E-05  0.3084E-07  0.2064E-05  0.4787E-09  0.2879E-01  0.1961E-01  0.2420E-02  0.9010E-02  0.4896E-09  0.8994E-02  0.1002E-01  0.6855E-03  0.2281E-08  0.3949E-07  0.8554E-02  0.1163E-02  0.8877E-08  0.1191E-03  0.1748E-02  0.3204E-08  0.1593E-04  0.9714E-07  0.3793E-04  0.7103E-03  0.8496E-05  0.4777E-15  0.4187E-07
      0.500      0.500     -5.150  0.5621E-05  0.4379E+00  0.5621E+00   4.000  1.0000  5.3997  0.5551E+02  0.4962E-04  0.2553E-09  0.8365E-03  0.5915E-02  0.7887E-10  0.6508E-04  0.1279E-03  0.5940E-03  0.5961E-02  0.2082E-03  0.4805E-05  0.3193E-07  0.2138E-05  0.4922E-09  0.2879E-01  0.1961E-01  0.2420E-02  0.9010E-02  0.4896E-09  0.8994E-02  0.1002E-01  0.6855E-03  0.2281E-08  0.3949E-07  0.8554E-02  0.1163E-02  0.8877E-08  0.1191E-03  0.1748E-02  0.3204E-08  0.1593E-04  0.9714E-07  0.3793E-04  0.7103E-03  0.8496E-05  0.4777E-15  0.4187E-07