
          ---- Aqueous concentrations vs. grid blocks at specified times ----

   Unit: 
    - Aqueous species: Total concencentrations in mol/kg h2o
    - Aqueous species: Individual concentrations in mol/kg h2o
    - Surface species: Concentrations in mol/kg h2o
    - Component in dry nodes in mol/L medium
 
VARIABLES =X,        Y,       Z,  P(bar)  ,      Sg,       Sl  ,     T(C)  ,  aH2O,    pH     ,t_h2o               ,t_h+                ,t_al+3              ,t_ca+2              ,t_cl-               ,t_fe+3              ,t_hco3-             ,t_k+                ,t_mg+2              ,t_na+               ,t_sio2(aq)          ,t_so4-2             ,t_sr+2              ,t_no3-              ,t_uo2+2             ,t_hfo_woh           ,t_>k1_aloh          ,t_k1_x-             ,t_>sioh             ,al+3                ,>sioh               ,hfo_woh2+           ,hfo_wo-             ,hfo_woca+           ,hfo_womg+           ,>k1_aloh2+          ,>k1_alohna+         ,>k1_aloh2no3        ,k1_xna              ,k1_xh               ,>sioh2+             ,>sio-               ,>siona              ,hfo_ohhco3-         ,hfo_ohh2co3         ,hfo_ohuo2oh+        ,(hfo_o)2(uo2)3(oh)5-,(hfo_o)2(uo2)co3-2  ,
ZONE T= "3.500000E+01 yr"  F=POINT
      0.500      0.500     -0.050  0.5439E-05  0.4561E+00  0.5439E+00   4.000  1.0000  5.3997  0.5551E+02  0.4140E-04  0.1261E-09  0.1017E-02  0.7265E-02  0.9679E-10  0.5992E-04  0.1497E-03  0.7187E-03  0.7272E-02  0.3164E-04  0.7305E-06  0.4939E-08  0.3251E-06  0.1596E-09  0.2879E-01  0.1961E-01  0.2420E-02  0.9010E-02  0.4896E-09  0.8994E-02  0.1002E-01  0.6855E-03  0.2281E-08  0.3949E-07  0.8554E-02  0.1163E-02  0.8877E-08  0.1191E-03  0.1748E-02  0.3204E-08  0.1593E-04  0.9714E-07  0.3793E-04  0.7103E-03  0.8496E-05  0.4777E-15  0.4187E-07
      0.500      0.500     -0.150  0.5413E-05  0.4587E+00  0.5413E+00   4.000  1.0000  5.3997  0.5551E+02  0.4146E-04  0.1270E-09  0.1015E-02  0.7256E-02  0.9667E-10  0.5996E-04  0.1495E-03  0.7178E-03  0.7263E-02  0.3281E-04  0.7575E-06  0.5118E-08  0.3371E-06  0.1618E-09  0.2879E-01  0.1961E-01  0.2420E-02  0.9010E-02  0.4896E-09  0.8994E-02  0.1002E-01  0.6855E-03  0.2281E-08  0.3949E-07  0.8554E-02  0.1163E-02  0.8877E-08  0.1191E-03  0.1748E-02  0.3204E-08  0.1593E-04  0.9714E-07  0.3793E-04  0.7103E-03  0.8496E-05  0.4777E-15  0.4187E-07
      0.500      0.500     -0.250  0.5413E-05  0.4587E+00  0.5413E+00   4.000  1.0000  5.3997  0.5551E+02  0.4151E-04  0.1279E-09  0.1014E-02  0.7247E-02  0.9655E-10  0.5999E-04  0.1494E-03  0.7170E-03  0.7254E-02  0.3403E-04  0.7855E-06  0.5303E-08  0.3496E-06  0.1641E-09  0.2879E-01  0.1961E-01  0.2420E-02  0.9010E-02  0.4896E-09  0.8994E-02  0.1002E-01  0.6855E-03  0.2281E-08  0.3949E-07  0.8554E-02  0.1163E-02  0.8877E-08  0.1191E-03  0.1748E-02  0.3204E-08  0.1593E-04  0.9714E-07  0.3793E-04  0.7103E-03  0.8496E-05  0.4777E-15  0.4187E-07
      0.500      0.500     -0.350  0.5413E-05  0.4587E+00  0.5413E+00   4.000  1.0000  5.3997  0.5551E+02  0.4157E-04  0.1288E-09  0.1013E-02  0.7237E-02  0.9642E-10  0.6003E-04  0.1492E-03  0.7161E-03  0.7245E-02  0.3529E-04  0.8146E-06  0.5496E-08  0.3625E-06  0.1665E-09  0.2879E-01  0.1961E-01  0.2420E-02  0.9010E-02  0.4896E-09  0.8994E-02  0.1002E-01  0.6855E-03  0.2281E-08  0.3949E-07  0.8554E-02  0.1163E-02  0.8877E-08  0.1191E-03  0.1748E-02  0.3204E-08  0.1593E-04  0.9714E-07  0.3793E-04  0.7103E-03  0.8496E-05  0.4777E-15  0.4187E-07
      0.500      0.500     -0.450  0.5413E-05  0.4587E+00  0.5413E+00   4.000  1.0000  5.3997  0.5551E+02  0.4163E-04  0.1298E-09  0.1012E-02  0.7227E-02  0.9629E-10  0.6007E-04  0.1491E-03  0.7152E-03  0.7235E-02  0.3659E-04  0.8447E-06  0.5696E-08  0.3759E-06  0.1689E-09  0.2879E-01  0.1961E-01  0.2420E-02  0.9010E-02  0.4896E-09  0.8994E-02  0.1002E-01  0.6855E-03  0.2281E-08  0.3949E-07  0.8554E-02  0.1163E-02  0.8877E-08  0.1191E-03  0.1748E-02  0.3204E-08  0.1593E-04  0.9714E-07  0.3793E-04  0.7103E-03  0.8496E-05  0.4777E-15  0.4187E-07
      0.500      0.500     -0.550  0.5413E-05  0.4587E+00  0.5413E+00   4.000  1.0000  5.3997  0.5551E+02  0.4170E-04  0.1308E-09  0.1010E-02  0.7217E-02  0.9615E-10  0.6011E-04  0.1489E-03  0.7142E-03  0.7225E-02  0.3795E-04  0.8760E-06  0.5903E-08  0.3898E-06  0.1715E-09  0.2879E-01  0.1961E-01  0.2420E-02  0.9010E-02  0.4896E-09  0.8994E-02  0.1002E-01  0.6855E-03  0.2281E-08  0.3949E-07  0.8554E-02  0.1163E-02  0.8877E-08  0.1191E-03  0.1748E-02  0.3204E-08  0.1593E-04  0.9714E-07  0.3793E-04  0.7103E-03  0.8496E-05  0.4777E-15  0.4187E-07
      0.500      0.500     -0.650  0.5413E-05  0.4587E+00  0.5413E+00   4.000  1.0000  5.3997  0.5551E+02  0.4176E-04  0.1318E-09  0.1009E-02  0.7206E-02  0.9601E-10  0.6015E-04  0.1487E-03  0.7132E-03  0.7215E-02  0.3935E-04  0.9084E-06  0.6117E-08  0.4042E-06  0.1741E-09  0.2879E-01  0.1961E-01  0.2420E-02  0.9010E-02  0.4896E-09  0.8994E-02  0.1002E-01  0.6855E-03  0.2281E-08  0.3949E-07  0.8554E-02  0.1163E-02  0.8877E-08  0.1191E-03  0.1748E-02  0.3204E-08  0.1593E-04  0.9714E-07  0.3793E-04  0.7103E-03  0.8496E-05  0.4777E-15  0.4187E-07
      0.500      0.500     -0.750  0.5413E-05  0.4587E+00  0.5413E+00   4.000  1.0000  5.3997  0.5551E+02  0.4183E-04  0.1329E-09  0.1007E-02  0.7195E-02  0.9586E-10  0.6019E-04  0.1486E-03  0.7122E-03  0.7204E-02  0.4081E-04  0.9420E-06  0.6340E-08  0.4192E-06  0.1769E-09  0.2879E-01  0.1961E-01  0.2420E-02  0.9010E-02  0.4896E-09  0.8994E-02  0.1002E-01  0.6855E-03  0.2281E-08  0.3949E-07  0.8554E-02  0.1163E-02  0.8877E-08  0.1191E-03  0.1748E-02  0.3204E-08  0.1593E-04  0.9714E-07  0.3793E-04  0.7103E-03  0.8496E-05  0.4777E-15  0.4187E-07
      0.500      0.500     -0.850  0.5413E-05  0.4587E+00  0.5413E+00   4.000  1.0000  5.3997  0.5551E+02  0.4190E-04  0.1340E-09  0.1006E-02  0.7183E-02  0.9570E-10  0.6024E-04  0.1484E-03  0.7111E-03  0.7193E-02  0.4232E-04  0.9769E-06  0.6571E-08  0.4347E-06  0.1797E-09  0.2879E-01  0.1961E-01  0.2420E-02  0.9010E-02  0.4896E-09  0.8994E-02  0.1002E-01  0.6855E-03  0.2281E-08  0.3949E-07  0.8554E-02  0.1163E-02  0.8877E-08  0.1191E-03  0.1748E-02  0.3204E-08  0.1593E-04  0.9714E-07  0.3793E-04  0.7103E-03  0.8496E-05  0.4777E-15  0.4187E-07
      0.500      0.500     -0.950  0.5413E-05  0.4587E+00  0.5413E+00   4.000  1.0000  5.3997  0.5551E+02  0.4197E-04  0.1351E-09  0.1004E-02  0.7171E-02  0.9555E-10  0.6028E-04  0.1482E-03  0.7100E-03  0.7181E-02  0.4388E-04  0.1013E-05  0.6811E-08  0.4508E-06  0.1827E-09  0.2879E-01  0.1961E-01  0.2420E-02  0.9010E-02  0.4896E-09  0.8994E-02  0.1002E-01  0.6855E-03  0.2281E-08  0.3949E-07  0.8554E-02  0.1163E-02  0.8877E-08  0.1191E-03  0.1748E-02  0.3204E-08  0.1593E-04  0.9714E-07  0.3793E-04  0.7103E-03  0.8496E-05  0.4777E-15  0.4187E-07
      0.500      0.500     -1.050  0.5413E-05  0.4587E+00  0.5413E+00   4.000  1.0000  5.3997  0.5551E+02  0.4205E-04  0.1363E-09  0.1003E-02  0.7159E-02  0.9538E-10  0.6033E-04  0.1480E-03  0.7089E-03  0.7169E-02  0.4551E-04  0.1051E-05  0.7059E-08  0.4675E-06  0.1857E-09  0.2879E-01  0.1961E-01  0.2420E-02  0.9010E-02  0.4896E-09  0.8994E-02  0.1002E-01  0.6855E-03  0.2281E-08  0.3949E-07  0.8554E-02  0.1163E-02  0.8877E-08  0.1191E-03  0.1748E-02  0.3204E-08  0.1593E-04  0.9714E-07  0.3793E-04  0.7103E-03  0.8496E-05  0.4777E-15  0.4187E-07
      0.500      0.500     -1.150  0.5413E-05  0.4587E+00  0.5413E+00   4.000  1.0000  5.3997  0.5551E+02  0.4213E-04  0.1375E-09  0.1001E-02  0.7146E-02  0.9521E-10  0.6038E-04  0.1478E-03  0.7077E-03  0.7157E-02  0.4719E-04  0.1089E-05  0.7316E-08  0.4848E-06  0.1889E-09  0.2879E-01  0.1961E-01  0.2420E-02  0.9010E-02  0.4896E-09  0.8994E-02  0.1002E-01  0.6855E-03  0.2281E-08  0.3949E-07  0.8554E-02  0.1163E-02  0.8877E-08  0.1191E-03  0.1748E-02  0.3204E-08  0.1593E-04  0.9714E-07  0.3793E-04  0.7103E-03  0.8496E-05  0.4777E-15  0.4187E-07
      0.500      0.500     -1.250  0.5413E-05  0.4587E+00  0.5413E+00   4.000  1.0000  5.3997  0.5551E+02  0.4221E-04  0.1388E-09  0.9990E-03  0.7133E-02  0.9503E-10  0.6043E-04  0.1475E-03  0.7064E-03  0.7144E-02  0.4894E-04  0.1130E-05  0.7584E-08  0.5027E-06  0.1922E-09  0.2879E-01  0.1961E-01  0.2420E-02  0.9010E-02  0.4896E-09  0.8994E-02  0.1002E-01  0.6855E-03  0.2281E-08  0.3949E-07  0.8554E-02  0.1163E-02  0.8877E-08  0.1191E-03  0.1748E-02  0.3204E-08  0.1593E-04  0.9714E-07  0.3793E-04  0.7103E-03  0.8496E-05  0.4777E-15  0.4187E-07
      0.500      0.500     -1.350  0.5413E-05  0.4587E+00  0.5413E+00   4.000  1.0000  5.3997  0.5551E+02  0.4229E-04  0.1401E-09  0.9972E-03  0.7119E-02  0.9485E-10  0.6048E-04  0.1473E-03  0.7052E-03  0.7130E-02  0.5075E-04  0.1171E-05  0.7860E-08  0.5213E-06  0.1956E-09  0.2879E-01  0.1961E-01  0.2420E-02  0.9010E-02  0.4896E-09  0.8994E-02  0.1002E-01  0.6855E-03  0.2281E-08  0.3949E-07  0.8554E-02  0.1163E-02  0.8877E-08  0.1191E-03  0.1748E-02  0.3204E-08  0.1593E-04  0.9714E-07  0.3793E-04  0.7103E-03  0.8496E-05  0.4777E-15  0.4187E-07
      0.500      0.500     -1.450  0.5413E-05  0.4587E+00  0.5413E+00   4.000  1.0000  5.3997  0.5551E+02  0.4238E-04  0.1415E-09  0.9953E-03  0.7105E-02  0.9466E-10  0.6054E-04  0.1471E-03  0.7038E-03  0.7116E-02  0.5263E-04  0.1215E-05  0.8148E-08  0.5406E-06  0.1992E-09  0.2879E-01  0.1961E-01  0.2420E-02  0.9010E-02  0.4896E-09  0.8994E-02  0.1002E-01  0.6855E-03  0.2281E-08  0.3949E-07  0.8554E-02  0.1163E-02  0.8877E-08  0.1191E-03  0.1748E-02  0.3204E-08  0.1593E-04  0.9714E-07  0.3793E-04  0.7103E-03  0.8496E-05  0.4777E-15  0.4187E-07
      0.500      0.500     -1.550  0.5413E-05  0.4587E+00  0.5413E+00   4.000  1.0000  5.3997  0.5551E+02  0.4247E-04  0.1429E-09  0.9933E-03  0.7090E-02  0.9446E-10  0.6059E-04  0.1469E-03  0.7025E-03  0.7102E-02  0.5457E-04  0.1260E-05  0.8445E-08  0.5606E-06  0.2028E-09  0.2879E-01  0.1961E-01  0.2420E-02  0.9010E-02  0.4896E-09  0.8994E-02  0.1002E-01  0.6855E-03  0.2281E-08  0.3949E-07  0.8554E-02  0.1163E-02  0.8877E-08  0.1191E-03  0.1748E-02  0.3204E-08  0.1593E-04  0.9714E-07  0.3793E-04  0.7103E-03  0.8496E-05  0.4777E-15  0.4187E-07
      0.500      0.500     -1.650  0.5413E-05  0.4587E+00  0.5413E+00   4.000  1.0000  5.3997  0.5551E+02  0.4256E-04  0.1444E-09  0.9912E-03  0.7074E-02  0.9426E-10  0.6065E-04  0.1466E-03  0.7010E-03  0.7087E-02  0.5659E-04  0.1306E-05  0.8754E-08  0.5813E-06  0.2066E-09  0.2879E-01  0.1961E-01  0.2420E-02  0.9010E-02  0.4896E-09  0.8994E-02  0.1002E-01  0.6855E-03  0.2281E-08  0.3949E-07  0.8554E-02  0.1163E-02  0.8877E-08  0.1191E-03  0.1748E-02  0.3204E-08  0.1593E-04  0.9714E-07  0.3793E-04  0.7103E-03  0.8496E-05  0.4777E-15  0.4187E-07
      0.500      0.500     -1.750  0.5413E-05  0.4587E+00  0.5413E+00   4.000  1.0000  5.3997  0.5551E+02  0.4266E-04  0.1459E-09  0.9891E-03  0.7058E-02  0.9404E-10  0.6071E-04  0.1463E-03  0.6996E-03  0.7071E-02  0.5869E-04  0.1355E-05  0.9075E-08  0.6028E-06  0.2106E-09  0.2879E-01  0.1961E-01  0.2420E-02  0.9010E-02  0.4896E-09  0.8994E-02  0.1002E-01  0.6855E-03  0.2281E-08  0.3949E-07  0.8554E-02  0.1163E-02  0.8877E-08  0.1191E-03  0.1748E-02  0.3204E-08  0.1593E-04  0.9714E-07  0.3793E-04  0.7103E-03  0.8496E-05  0.4777E-15  0.4187E-07
      0.500      0.500     -1.850  0.5413E-05  0.4587E+00  0.5413E+00   4.000  1.0000  5.3997  0.5551E+02  0.4276E-04  0.1475E-09  0.9869E-03  0.7042E-02  0.9382E-10  0.6078E-04  0.1461E-03  0.6980E-03  0.7055E-02  0.6086E-04  0.1405E-05  0.9407E-08  0.6251E-06  0.2147E-09  0.2879E-01  0.1961E-01  0.2420E-02  0.9010E-02  0.4896E-09  0.8994E-02  0.1002E-01  0.6855E-03  0.2281E-08  0.3949E-07  0.8554E-02  0.1163E-02  0.8877E-08  0.1191E-03  0.1748E-02  0.3204E-08  0.1593E-04  0.9714E-07  0.3793E-04  0.7103E-03  0.8496E-05  0.4777E-15  0.4187E-07
      0.500      0.500     -1.950  0.5413E-05  0.4587E+00  0.5413E+00   4.000  1.0000  5.3997  0.5551E+02  0.4287E-04  0.1492E-09  0.9846E-03  0.7024E-02  0.9359E-10  0.6084E-04  0.1458E-03  0.6964E-03  0.7038E-02  0.6311E-04  0.1457E-05  0.9751E-08  0.6483E-06  0.2189E-09  0.2879E-01  0.1961E-01  0.2420E-02  0.9010E-02  0.4896E-09  0.8994E-02  0.1002E-01  0.6855E-03  0.2281E-08  0.3949E-07  0.8554E-02  0.1163E-02  0.8877E-08  0.1191E-03  0.1748E-02  0.3204E-08  0.1593E-04  0.9714E-07  0.3793E-04  0.7103E-03  0.8496E-05  0.4777E-15  0.4187E-07
      0.500      0.500     -2.050  0.5413E-05  0.4587E+00  0.5413E+00   4.000  1.0000  5.3997  0.5551E+02  0.4298E-04  0.1509E-09  0.9822E-03  0.7007E-02  0.9336E-10  0.6091E-04  0.1455E-03  0.6948E-03  0.7021E-02  0.6545E-04  0.1511E-05  0.1011E-07  0.6723E-06  0.2233E-09  0.2879E-01  0.1961E-01  0.2420E-02  0.9010E-02  0.4896E-09  0.8994E-02  0.1002E-01  0.6855E-03  0.2281E-08  0.3949E-07  0.8554E-02  0.1163E-02  0.8877E-08  0.1191E-03  0.1748E-02  0.3204E-08  0.1593E-04  0.9714E-07  0.3793E-04  0.7103E-03  0.8496E-05  0.4777E-15  0.4187E-07
      0.500      0.500     -2.150  0.5413E-05  0.4587E+00  0.5413E+00   4.000  1.0000  5.3997  0.5551E+02  0.4309E-04  0.1526E-09  0.9797E-03  0.6988E-02  0.9311E-10  0.6098E-04  0.1452E-03  0.6931E-03  0.7003E-02  0.6787E-04  0.1567E-05  0.1048E-07  0.6971E-06  0.2279E-09  0.2879E-01  0.1961E-01  0.2420E-02  0.9010E-02  0.4896E-09  0.8994E-02  0.1002E-01  0.6855E-03  0.2281E-08  0.3949E-07  0.8554E-02  0.1163E-02  0.8877E-08  0.1191E-03  0.1748E-02  0.3204E-08  0.1593E-04  0.9714E-07  0.3793E-04  0.7103E-03  0.8496E-05  0.4777E-15  0.4187E-07
      0.500      0.500     -2.250  0.5413E-05  0.4587E+00  0.5413E+00   4.000  1.0000  5.3997  0.5551E+02  0.4321E-04  0.1545E-09  0.9771E-03  0.6969E-02  0.9286E-10  0.6106E-04  0.1449E-03  0.6913E-03  0.6984E-02  0.7038E-04  0.1625E-05  0.1086E-07  0.7229E-06  0.2326E-09  0.2879E-01  0.1961E-01  0.2420E-02  0.9010E-02  0.4896E-09  0.8994E-02  0.1002E-01  0.6855E-03  0.2281E-08  0.3949E-07  0.8554E-02  0.1163E-02  0.8877E-08  0.1191E-03  0.1748E-02  0.3204E-08  0.1593E-04  0.9714E-07  0.3793E-04  0.7103E-03  0.8496E-05  0.4777E-15  0.4187E-07
      0.500      0.500     -2.350  0.5413E-05  0.4587E+00  0.5413E+00   4.000  1.0000  5.3997  0.5551E+02  0.4333E-04  0.1564E-09  0.9745E-03  0.6949E-02  0.9259E-10  0.6113E-04  0.1446E-03  0.6895E-03  0.6965E-02  0.7299E-04  0.1685E-05  0.1126E-07  0.7497E-06  0.2375E-09  0.2879E-01  0.1961E-01  0.2420E-02  0.9010E-02  0.4896E-09  0.8994E-02  0.1002E-01  0.6855E-03  0.2281E-08  0.3949E-07  0.8554E-02  0.1163E-02  0.8877E-08  0.1191E-03  0.1748E-02  0.3204E-08  0.1593E-04  0.9714E-07  0.3793E-04  0.7103E-03  0.8496E-05  0.4777E-15  0.4187E-07
      0.500      0.500     -2.450  0.5413E-05  0.4587E+00  0.5413E+00   4.000  1.0000  5.3997  0.5551E+02  0.4345E-04  0.1584E-09  0.9717E-03  0.6928E-02  0.9232E-10  0.6121E-04  0.1442E-03  0.6876E-03  0.6945E-02  0.7569E-04  0.1747E-05  0.1167E-07  0.7774E-06  0.2426E-09  0.2879E-01  0.1961E-01  0.2420E-02  0.9010E-02  0.4896E-09  0.8994E-02  0.1002E-01  0.6855E-03  0.2281E-08  0.3949E-07  0.8554E-02  0.1163E-02  0.8877E-08  0.1191E-03  0.1748E-02  0.3204E-08  0.1593E-04  0.9714E-07  0.3793E-04  0.7103E-03  0.8496E-05  0.4777E-15  0.4187E-07
      0.500      0.500     -2.550  0.5413E-05  0.4587E+00  0.5413E+00   4.000  1.0000  5.3997  0.5551E+02  0.4358E-04  0.1604E-09  0.9689E-03  0.6907E-02  0.9203E-10  0.6129E-04  0.1439E-03  0.6856E-03  0.6924E-02  0.7849E-04  0.1812E-05  0.1210E-07  0.8062E-06  0.2479E-09  0.2879E-01  0.1961E-01  0.2420E-02  0.9010E-02  0.4896E-09  0.8994E-02  0.1002E-01  0.6855E-03  0.2281E-08  0.3949E-07  0.8554E-02  0.1163E-02  0.8877E-08  0.1191E-03  0.1748E-02  0.3204E-08  0.1593E-04  0.9714E-07  0.3793E-04  0.7103E-03  0.8496E-05  0.4777E-15  0.4187E-07
      0.500      0.500     -2.650  0.5414E-05  0.4586E+00  0.5414E+00   4.000  1.0000  5.3997  0.5551E+02  0.4372E-04  0.1625E-09  0.9659E-03  0.6885E-02  0.9174E-10  0.6138E-04  0.1435E-03  0.6835E-03  0.6903E-02  0.8139E-04  0.1879E-05  0.1255E-07  0.8360E-06  0.2534E-09  0.2879E-01  0.1961E-01  0.2420E-02  0.9010E-02  0.4896E-09  0.8994E-02  0.1002E-01  0.6855E-03  0.2281E-08  0.3949E-07  0.8554E-02  0.1163E-02  0.8877E-08  0.1191E-03  0.1748E-02  0.3204E-08  0.1593E-04  0.9714E-07  0.3793E-04  0.7103E-03  0.8496E-05  0.4777E-15  0.4187E-07
      0.500      0.500     -2.750  0.5414E-05  0.4586E+00  0.5414E+00   4.000  1.0000  5.3997  0.5551E+02  0.4386E-04  0.1647E-09  0.9628E-03  0.6862E-02  0.9143E-10  0.6147E-04  0.1432E-03  0.6814E-03  0.6880E-02  0.8440E-04  0.1948E-05  0.1301E-07  0.8669E-06  0.2590E-09  0.2879E-01  0.1961E-01  0.2420E-02  0.9010E-02  0.4896E-09  0.8994E-02  0.1002E-01  0.6855E-03  0.2281E-08  0.3949E-07  0.8554E-02  0.1163E-02  0.8877E-08  0.1191E-03  0.1748E-02  0.3204E-08  0.1593E-04  0.9714E-07  0.3793E-04  0.7103E-03  0.8496E-05  0.4777E-15  0.4187E-07
      0.500      0.500     -2.850  0.5414E-05  0.4586E+00  0.5414E+00   4.000  1.0000  5.3997  0.5551E+02  0.4400E-04  0.1670E-09  0.9596E-03  0.6838E-02  0.9112E-10  0.6156E-04  0.1428E-03  0.6792E-03  0.6857E-02  0.8753E-04  0.2020E-05  0.1348E-07  0.8990E-06  0.2649E-09  0.2879E-01  0.1961E-01  0.2420E-02  0.9010E-02  0.4896E-09  0.8994E-02  0.1002E-01  0.6855E-03  0.2281E-08  0.3949E-07  0.8554E-02  0.1163E-02  0.8877E-08  0.1191E-03  0.1748E-02  0.3204E-08  0.1593E-04  0.9714E-07  0.3793E-04  0.7103E-03  0.8496E-05  0.4777E-15  0.4187E-07
      0.500      0.500     -2.950  0.5414E-05  0.4586E+00  0.5414E+00   4.000  1.0000  5.3997  0.5551E+02  0.4416E-04  0.1694E-09  0.9563E-03  0.6813E-02  0.9079E-10  0.6165E-04  0.1424E-03  0.6769E-03  0.6833E-02  0.9077E-04  0.2095E-05  0.1398E-07  0.9323E-06  0.2710E-09  0.2879E-01  0.1961E-01  0.2420E-02  0.9010E-02  0.4896E-09  0.8994E-02  0.1002E-01  0.6855E-03  0.2281E-08  0.3949E-07  0.8554E-02  0.1163E-02  0.8877E-08  0.1191E-03  0.1748E-02  0.3204E-08  0.1593E-04  0.9714E-07  0.3793E-04  0.7103E-03  0.8496E-05  0.4777E-15  0.4187E-07
      0.500      0.500     -3.050  0.5414E-05  0.4586E+00  0.5414E+00   4.000  1.0000  5.3997  0.5551E+02  0.4431E-04  0.1719E-09  0.9529E-03  0.6787E-02  0.9045E-10  0.6175E-04  0.1420E-03  0.6745E-03  0.6808E-02  0.9412E-04  0.2173E-05  0.1449E-07  0.9668E-06  0.2773E-09  0.2879E-01  0.1961E-01  0.2420E-02  0.9010E-02  0.4896E-09  0.8994E-02  0.1002E-01  0.6855E-03  0.2281E-08  0.3949E-07  0.8554E-02  0.1163E-02  0.8877E-08  0.1191E-03  0.1748E-02  0.3204E-08  0.1593E-04  0.9714E-07  0.3793E-04  0.7103E-03  0.8496E-05  0.4777E-15  0.4187E-07
      0.500      0.500     -3.150  0.5414E-05  0.4586E+00  0.5414E+00   4.000  1.0000  5.3997  0.5551E+02  0.4447E-04  0.1744E-09  0.9493E-03  0.6761E-02  0.9009E-10  0.6185E-04  0.1415E-03  0.6721E-03  0.6782E-02  0.9761E-04  0.2253E-05  0.1503E-07  0.1003E-05  0.2839E-09  0.2879E-01  0.1961E-01  0.2420E-02  0.9010E-02  0.4896E-09  0.8994E-02  0.1002E-01  0.6855E-03  0.2281E-08  0.3949E-07  0.8554E-02  0.1163E-02  0.8877E-08  0.1191E-03  0.1748E-02  0.3204E-08  0.1593E-04  0.9714E-07  0.3793E-04  0.7103E-03  0.8496E-05  0.4777E-15  0.4187E-07
      0.500      0.500     -3.250  0.5414E-05  0.4586E+00  0.5414E+00   4.000  1.0000  5.3997  0.5551E+02  0.4464E-04  0.1770E-09  0.9457E-03  0.6733E-02  0.8973E-10  0.6196E-04  0.1411E-03  0.6695E-03  0.6756E-02  0.1012E-03  0.2336E-05  0.1558E-07  0.1040E-05  0.2907E-09  0.2879E-01  0.1961E-01  0.2420E-02  0.9010E-02  0.4896E-09  0.8994E-02  0.1002E-01  0.6855E-03  0.2281E-08  0.3949E-07  0.8554E-02  0.1163E-02  0.8877E-08  0.1191E-03  0.1748E-02  0.3204E-08  0.1593E-04  0.9714E-07  0.3793E-04  0.7103E-03  0.8496E-05  0.4777E-15  0.4187E-07
      0.500      0.500     -3.350  0.5415E-05  0.4585E+00  0.5415E+00   4.000  1.0000  5.3997  0.5551E+02  0.4482E-04  0.1798E-09  0.9418E-03  0.6704E-02  0.8935E-10  0.6207E-04  0.1406E-03  0.6669E-03  0.6728E-02  0.1050E-03  0.2423E-05  0.1615E-07  0.1078E-05  0.2978E-09  0.2879E-01  0.1961E-01  0.2420E-02  0.9010E-02  0.4896E-09  0.8994E-02  0.1002E-01  0.6855E-03  0.2281E-08  0.3949E-07  0.8554E-02  0.1163E-02  0.8877E-08  0.1191E-03  0.1748E-02  0.3204E-08  0.1593E-04  0.9714E-07  0.3793E-04  0.7103E-03  0.8496E-05  0.4777E-15  0.4187E-07
      0.500      0.500     -3.450  0.5415E-05  0.4585E+00  0.5415E+00   4.000  1.0000  5.3997  0.5551E+02  0.4500E-04  0.1826E-09  0.9379E-03  0.6675E-02  0.8895E-10  0.6218E-04  0.1401E-03  0.6641E-03  0.6699E-02  0.1088E-03  0.2512E-05  0.1674E-07  0.1118E-05  0.3051E-09  0.2879E-01  0.1961E-01  0.2420E-02  0.9010E-02  0.4896E-09  0.8994E-02  0.1002E-01  0.6855E-03  0.2281E-08  0.3949E-07  0.8554E-02  0.1163E-02  0.8877E-08  0.1191E-03  0.1748E-02  0.3204E-08  0.1593E-04  0.9714E-07  0.3793E-04  0.7103E-03  0.8496E-05  0.4777E-15  0.4187E-07
      0.500      0.500     -3.550  0.5415E-05  0.4585E+00  0.5415E+00   4.000  1.0000  5.3997  0.5551E+02  0.4518E-04  0.1856E-09  0.9338E-03  0.6644E-02  0.8854E-10  0.6230E-04  0.1396E-03  0.6613E-03  0.6669E-02  0.1129E-03  0.2605E-05  0.1736E-07  0.1159E-05  0.3127E-09  0.2879E-01  0.1961E-01  0.2420E-02  0.9010E-02  0.4896E-09  0.8994E-02  0.1002E-01  0.6855E-03  0.2281E-08  0.3949E-07  0.8554E-02  0.1163E-02  0.8877E-08  0.1191E-03  0.1748E-02  0.3204E-08  0.1593E-04  0.9714E-07  0.3793E-04  0.7103E-03  0.8496E-05  0.4777E-15  0.4187E-07
      0.500      0.500     -3.650  0.5415E-05  0.4585E+00  0.5415E+00   4.000  1.0000  5.3997  0.5551E+02  0.4538E-04  0.1886E-09  0.9295E-03  0.6612E-02  0.8812E-10  0.6242E-04  0.1391E-03  0.6584E-03  0.6638E-02  0.1170E-03  0.2702E-05  0.1800E-07  0.1202E-05  0.3205E-09  0.2879E-01  0.1961E-01  0.2420E-02  0.9010E-02  0.4896E-09  0.8994E-02  0.1002E-01  0.6855E-03  0.2281E-08  0.3949E-07  0.8554E-02  0.1163E-02  0.8877E-08  0.1191E-03  0.1748E-02  0.3204E-08  0.1593E-04  0.9714E-07  0.3793E-04  0.7103E-03  0.8496E-05  0.4777E-15  0.4187E-07
      0.500      0.500     -3.750  0.5416E-05  0.4584E+00  0.5416E+00   4.000  1.0000  5.3997  0.5551E+02  0.4558E-04  0.1918E-09  0.9251E-03  0.6579E-02  0.8768E-10  0.6255E-04  0.1386E-03  0.6553E-03  0.6606E-02  0.1214E-03  0.2802E-05  0.1866E-07  0.1247E-05  0.3287E-09  0.2879E-01  0.1961E-01  0.2420E-02  0.9010E-02  0.4896E-09  0.8994E-02  0.1002E-01  0.6855E-03  0.2281E-08  0.3949E-07  0.8554E-02  0.1163E-02  0.8877E-08  0.1191E-03  0.1748E-02  0.3204E-08  0.1593E-04  0.9714E-07  0.3793E-04  0.7103E-03  0.8496E-05  0.4777E-15  0.4187E-07
      0.500      0.500     -3.850  0.5416E-05  0.4584E+00  0.5416E+00   4.000  1.0000  5.3997  0.5551E+02  0.4579E-04  0.1951E-09  0.9205E-03  0.6545E-02  0.8722E-10  0.6268E-04  0.1380E-03  0.6521E-03  0.6573E-02  0.1259E-03  0.2905E-05  0.1935E-07  0.1293E-05  0.3372E-09  0.2879E-01  0.1961E-01  0.2420E-02  0.9010E-02  0.4896E-09  0.8994E-02  0.1002E-01  0.6855E-03  0.2281E-08  0.3949E-07  0.8554E-02  0.1163E-02  0.8877E-08  0.1191E-03  0.1748E-02  0.3204E-08  0.1593E-04  0.9714E-07  0.3793E-04  0.7103E-03  0.8496E-05  0.4777E-15  0.4187E-07
      0.500      0.500     -3.950  0.5416E-05  0.4584E+00  0.5416E+00   4.000  1.0000  5.3997  0.5551E+02  0.4601E-04  0.1985E-09  0.9157E-03  0.6509E-02  0.8675E-10  0.6281E-04  0.1375E-03  0.6488E-03  0.6538E-02  0.1305E-03  0.3013E-05  0.2006E-07  0.1341E-05  0.3459E-09  0.2879E-01  0.1961E-01  0.2420E-02  0.9010E-02  0.4896E-09  0.8994E-02  0.1002E-01  0.6855E-03  0.2281E-08  0.3949E-07  0.8554E-02  0.1163E-02  0.8877E-08  0.1191E-03  0.1748E-02  0.3204E-08  0.1593E-04  0.9714E-07  0.3793E-04  0.7103E-03  0.8496E-05  0.4777E-15  0.4187E-07
      0.500      0.500     -4.050  0.5417E-05  0.4583E+00  0.5417E+00   4.000  1.0000  5.3997  0.5551E+02  0.4623E-04  0.2020E-09  0.9108E-03  0.6472E-02  0.8626E-10  0.6295E-04  0.1369E-03  0.6454E-03  0.6502E-02  0.1353E-03  0.3124E-05  0.2080E-07  0.1390E-05  0.3550E-09  0.2879E-01  0.1961E-01  0.2420E-02  0.9010E-02  0.4896E-09  0.8994E-02  0.1002E-01  0.6855E-03  0.2281E-08  0.3949E-07  0.8554E-02  0.1163E-02  0.8877E-08  0.1191E-03  0.1748E-02  0.3204E-08  0.1593E-04  0.9714E-07  0.3793E-04  0.7103E-03  0.8496E-05  0.4777E-15  0.4187E-07
      0.500      0.500     -4.150  0.5417E-05  0.4583E+00  0.5417E+00   4.000  1.0000  5.3997  0.5551E+02  0.4646E-04  0.2057E-09  0.9057E-03  0.6434E-02  0.8575E-10  0.6310E-04  0.1362E-03  0.6419E-03  0.6465E-02  0.1404E-03  0.3240E-05  0.2156E-07  0.1442E-05  0.3644E-09  0.2879E-01  0.1961E-01  0.2420E-02  0.9010E-02  0.4896E-09  0.8994E-02  0.1002E-01  0.6855E-03  0.2281E-08  0.3949E-07  0.8554E-02  0.1163E-02  0.8877E-08  0.1191E-03  0.1748E-02  0.3204E-08  0.1593E-04  0.9714E-07  0.3793E-04  0.7103E-03  0.8496E-05  0.4777E-15  0.4187E-07
      0.500      0.500     -4.250  0.5418E-05  0.4582E+00  0.5418E+00   4.000  1.0000  5.3997  0.5551E+02  0.4671E-04  0.2095E-09  0.9004E-03  0.6394E-02  0.8523E-10  0.6325E-04  0.1356E-03  0.6382E-03  0.6426E-02  0.1455E-03  0.3360E-05  0.2236E-07  0.1495E-05  0.3742E-09  0.2879E-01  0.1961E-01  0.2420E-02  0.9010E-02  0.4896E-09  0.8994E-02  0.1002E-01  0.6855E-03  0.2281E-08  0.3949E-07  0.8554E-02  0.1163E-02  0.8877E-08  0.1191E-03  0.1748E-02  0.3204E-08  0.1593E-04  0.9714E-07  0.3793E-04  0.7103E-03  0.8496E-05  0.4777E-15  0.4187E-07
      0.500      0.500     -4.350  0.5418E-05  0.4582E+00  0.5418E+00   4.000  1.0000  5.3997  0.5551E+02  0.4696E-04  0.2134E-09  0.8949E-03  0.6353E-02  0.8468E-10  0.6341E-04  0.1349E-03  0.6344E-03  0.6386E-02  0.1509E-03  0.3484E-05  0.2318E-07  0.1550E-05  0.3844E-09  0.2879E-01  0.1961E-01  0.2420E-02  0.9010E-02  0.4896E-09  0.8994E-02  0.1002E-01  0.6855E-03  0.2281E-08  0.3949E-07  0.8554E-02  0.1163E-02  0.8877E-08  0.1191E-03  0.1748E-02  0.3204E-08  0.1593E-04  0.9714E-07  0.3793E-04  0.7103E-03  0.8496E-05  0.4777E-15  0.4187E-07
      0.500      0.500     -4.450  0.5419E-05  0.4581E+00  0.5419E+00   4.000  1.0000  5.3997  0.5551E+02  0.4722E-04  0.2175E-09  0.8892E-03  0.6310E-02  0.8411E-10  0.6357E-04  0.1342E-03  0.6305E-03  0.6345E-02  0.1565E-03  0.3613E-05  0.2403E-07  0.1607E-05  0.3949E-09  0.2879E-01  0.1961E-01  0.2420E-02  0.9010E-02  0.4896E-09  0.8994E-02  0.1002E-01  0.6855E-03  0.2281E-08  0.3949E-07  0.8554E-02  0.1163E-02  0.8877E-08  0.1191E-03  0.1748E-02  0.3204E-08  0.1593E-04  0.9714E-07  0.3793E-04  0.7103E-03  0.8496E-05  0.4777E-15  0.4187E-07
      0.500      0.500     -4.550  0.5420E-05  0.4580E+00  0.5420E+00   4.000  1.0000  5.3997  0.5551E+02  0.4749E-04  0.2217E-09  0.8833E-03  0.6266E-02  0.8353E-10  0.6374E-04  0.1335E-03  0.6264E-03  0.6302E-02  0.1623E-03  0.3746E-05  0.2492E-07  0.1667E-05  0.4058E-09  0.2879E-01  0.1961E-01  0.2420E-02  0.9010E-02  0.4896E-09  0.8994E-02  0.1002E-01  0.6855E-03  0.2281E-08  0.3949E-07  0.8554E-02  0.1163E-02  0.8877E-08  0.1191E-03  0.1748E-02  0.3204E-08  0.1593E-04  0.9714E-07  0.3793E-04  0.7103E-03  0.8496E-05  0.4777E-15  0.4187E-07
      0.500      0.500     -4.650  0.5421E-05  0.4579E+00  0.5421E+00   4.000  1.0000  5.3997  0.5551E+02  0.4777E-04  0.2261E-09  0.8772E-03  0.6220E-02  0.8292E-10  0.6392E-04  0.1328E-03  0.6222E-03  0.6258E-02  0.1683E-03  0.3884E-05  0.2583E-07  0.1728E-05  0.4171E-09  0.2879E-01  0.1961E-01  0.2420E-02  0.9010E-02  0.4896E-09  0.8994E-02  0.1002E-01  0.6855E-03  0.2281E-08  0.3949E-07  0.8554E-02  0.1163E-02  0.8877E-08  0.1191E-03  0.1748E-02  0.3204E-08  0.1593E-04  0.9714E-07  0.3793E-04  0.7103E-03  0.8496E-05  0.4777E-15  0.4187E-07
      0.500      0.500     -4.750  0.5422E-05  0.4578E+00  0.5422E+00   4.000  1.0000  5.3997  0.5551E+02  0.4806E-04  0.2307E-09  0.8708E-03  0.6173E-02  0.8229E-10  0.6410E-04  0.1320E-03  0.6178E-03  0.6211E-02  0.1745E-03  0.4028E-05  0.2679E-07  0.1792E-05  0.4288E-09  0.2879E-01  0.1961E-01  0.2420E-02  0.9010E-02  0.4896E-09  0.8994E-02  0.1002E-01  0.6855E-03  0.2281E-08  0.3949E-07  0.8554E-02  0.1163E-02  0.8877E-08  0.1191E-03  0.1748E-02  0.3204E-08  0.1593E-04  0.9714E-07  0.3793E-04  0.7103E-03  0.8496E-05  0.4777E-15  0.4187E-07
      0.500      0.500     -4.850  0.5423E-05  0.4577E+00  0.5423E+00   4.000  1.0000  5.3997  0.5551E+02  0.4836E-04  0.2354E-09  0.8643E-03  0.6123E-02  0.8163E-10  0.6429E-04  0.1312E-03  0.6132E-03  0.6164E-02  0.1810E-03  0.4177E-05  0.2777E-07  0.1858E-05  0.4409E-09  0.2879E-01  0.1961E-01  0.2420E-02  0.9010E-02  0.4896E-09  0.8994E-02  0.1002E-01  0.6855E-03  0.2281E-08  0.3949E-07  0.8554E-02  0.1163E-02  0.8877E-08  0.1191E-03  0.1748E-02  0.3204E-08  0.1593E-04  0.9714E-07  0.3793E-04  0.7103E-03  0.8496E-05  0.4777E-15  0.4187E-07
      0.500      0.500     -4.950  0.5424E-05  0.4576E+00  0.5424E+00   4.000  1.0000  5.3997  0.5551E+02  0.4867E-04  0.2403E-09  0.8574E-03  0.6072E-02  0.8095E-10  0.6448E-04  0.1304E-03  0.6085E-03  0.6114E-02  0.1876E-03  0.4331E-05  0.2879E-07  0.1927E-05  0.4535E-09  0.2879E-01  0.1961E-01  0.2420E-02  0.9010E-02  0.4896E-09  0.8994E-02  0.1002E-01  0.6855E-03  0.2281E-08  0.3949E-07  0.8554E-02  0.1163E-02  0.8877E-08  0.1191E-03  0.1748E-02  0.3204E-08  0.1593E-04  0.9714E-07  0.3793E-04  0.7103E-03  0.8496E-05  0.4777E-15  0.4187E-07
      0.500      0.500     -5.050  0.5426E-05  0.4574E+00  0.5426E+00   4.000  1.0000  5.3997  0.5551E+02  0.4899E-04  0.2453E-09  0.8504E-03  0.6019E-02  0.8025E-10  0.6468E-04  0.1295E-03  0.6036E-03  0.6063E-02  0.1946E-03  0.4491E-05  0.2985E-07  0.1998E-05  0.4666E-09  0.2879E-01  0.1961E-01  0.2420E-02  0.9010E-02  0.4896E-09  0.8994E-02  0.1002E-01  0.6855E-03  0.2281E-08  0.3949E-07  0.8554E-02  0.1163E-02  0.8877E-08  0.1191E-03  0.1748E-02  0.3204E-08  0.1593E-04  0.9714E-07  0.3793E-04  0.7103E-03  0.8496E-05  0.4777E-15  0.4187E-07
      0.500      0.500     -5.150  0.5427E-05  0.4573E+00  0.5427E+00   4.000  1.0000  5.3997  0.5551E+02  0.4932E-04  0.2506E-09  0.8430E-03  0.5964E-02  0.7952E-10  0.6489E-04  0.1287E-03  0.5986E-03  0.6009E-02  0.2017E-03  0.4657E-05  0.3095E-07  0.2072E-05  0.4801E-09  0.2879E-01  0.1961E-01  0.2420E-02  0.9010E-02  0.4896E-09  0.8994E-02  0.1002E-01  0.6855E-03  0.2281E-08  0.3949E-07  0.8554E-02  0.1163E-02  0.8877E-08  0.1191E-03  0.1748E-02  0.3204E-08  0.1593E-04  0.9714E-07  0.3793E-04  0.7103E-03  0.8496E-05  0.4777E-15  0.4187E-07