# Units: Mol/kgw
 TITLE = " Years"
VARIABLES = "X (meters)", "Na+       ", "Ca++      ", "Mg++      ", "Cl-       ", "
 ZONE F=POINT,I=         100
 5.00000E-01               1.20322E-02   6.88819E-04   4.82902E-04   1.46600E-02
 1.50000E+00               1.32075E-02   4.55874E-04   2.76439E-04   1.46600E-02
 2.50000E+00               1.32686E-02   4.31099E-04   2.62791E-04   1.46600E-02
 3.50000E+00               1.32743E-02   4.30081E-04   2.62243E-04   1.46600E-02
 4.50000E+00               1.32742E-02   4.29880E-04   2.62129E-04   1.46600E-02
 5.50000E+00               1.32721E-02   4.29585E-04   2.61955E-04   1.46600E-02
 6.50000E+00               1.32668E-02   4.29092E-04   2.61661E-04   1.46600E-02
 7.50000E+00               1.32627E-02   4.28811E-04   2.61490E-04   1.46600E-02
 8.50000E+00               1.32628E-02   4.28816E-04   2.61493E-04   1.46600E-02
 9.50000E+00               1.32681E-02   4.29073E-04   2.61653E-04   1.46600E-02
 1.05000E+01               1.32784E-02   4.29670E-04   2.62020E-04   1.46600E-02
 1.15000E+01               1.32865E-02   4.30137E-04   2.62307E-04   1.46600E-02
 1.25000E+01               1.32889E-02   4.30264E-04   2.62386E-04   1.46600E-02
 1.35000E+01               1.32889E-02   4.30232E-04   2.62367E-04   1.46600E-02
 1.45000E+01               1.32863E-02   4.30041E-04   2.62251E-04   1.46600E-02
 1.55000E+01               1.32803E-02   4.29622E-04   2.61998E-04   1.46600E-02
 1.65000E+01               1.32752E-02   4.29283E-04   2.61791E-04   1.46600E-02
 1.75000E+01               1.32741E-02   4.29251E-04   2.61770E-04   1.46600E-02
 1.85000E+01               1.32759E-02   4.29232E-04   2.61764E-04   1.46600E-02
 1.95000E+01               1.32822E-02   4.29701E-04   2.62048E-04   1.46600E-02
 2.05000E+01               1.32897E-02   4.30201E-04   2.62351E-04   1.46600E-02
 2.15000E+01               1.32933E-02   4.30377E-04   2.62461E-04   1.46600E-02
 2.25000E+01               1.32934E-02   4.30359E-04   2.62451E-04   1.46600E-02
 2.35000E+01               1.32913E-02   4.30191E-04   2.62350E-04   1.46600E-02
 2.45000E+01               1.32853E-02   4.29804E-04   2.62114E-04   1.46600E-02
 2.55000E+01               1.32787E-02   4.29373E-04   2.61851E-04   1.46600E-02
 2.65000E+01               1.32752E-02   4.29157E-04   2.61719E-04   1.46600E-02
 2.75000E+01               1.32751E-02   4.29121E-04   2.61699E-04   1.46600E-02
 2.85000E+01               1.32770E-02   4.29240E-04   2.61771E-04   1.46600E-02
 2.95000E+01               1.32827E-02   4.29624E-04   2.62005E-04   1.46600E-02
 3.05000E+01               1.32887E-02   4.29993E-04   2.62230E-04   1.46600E-02
 3.15000E+01               1.32913E-02   4.30146E-04   2.62324E-04   1.46600E-02
 3.25000E+01               1.32914E-02   4.30139E-04   2.62321E-04   1.46600E-02
 3.35000E+01               1.32904E-02   4.30069E-04   2.62278E-04   1.46600E-02
 3.45000E+01               1.32883E-02   4.29928E-04   2.62193E-04   1.46600E-02
 3.55000E+01               1.32871E-02   4.29846E-04   2.62143E-04   1.46600E-02
 3.65000E+01               1.32869E-02   4.29864E-04   2.62152E-04   1.46600E-02
 3.75000E+01               1.32873E-02   4.29792E-04   2.62112E-04   1.46600E-02
 3.85000E+01               1.32875E-02   4.29864E-04   2.62154E-04   1.46600E-02
 3.95000E+01               1.32878E-02   4.29891E-04   2.62170E-04   1.46601E-02
 4.05000E+01               1.32882E-02   4.29908E-04   2.62181E-04   1.46607E-02
 4.15000E+01               1.32899E-02   4.30001E-04   2.62238E-04   1.46633E-02
 4.25000E+01               1.32987E-02   4.30561E-04   2.62580E-04   1.46756E-02
 4.35000E+01               1.33442E-02   4.33504E-04   2.64375E-04   1.47341E-02
 4.45000E+01               1.35667E-02   4.48072E-04   2.73260E-04   1.50102E-02
 4.55000E+01               1.46149E-02   5.19989E-04   3.17119E-04   1.63046E-02
 4.65000E+01               1.84726E-02   8.30763E-04   5.06645E-04   2.11935E-02
 4.75000E+01               2.62491E-02   1.67750E-03   1.02303E-03   3.17050E-02
 4.85000E+01               3.71257E-02   3.35507E-03   2.04613E-03   4.79563E-02
 4.95000E+01               4.94959E-02   5.96155E-03   3.63579E-03   6.86749E-02
 5.05000E+01               6.14986E-02   9.20104E-03   5.61156E-03   9.10769E-02
 5.15000E+01               7.16402E-02   1.24840E-02   7.61389E-03   1.11783E-01
 5.25000E+01               7.90880E-02   1.52140E-02   9.27887E-03   1.28033E-01
 5.35000E+01               8.36986E-02   1.70397E-02   1.03924E-02   1.38541E-01
 5.45000E+01               8.58152E-02   1.79129E-02   1.09249E-02   1.43484E-01
 5.55000E+01               8.63661E-02   1.81437E-02   1.10657E-02   1.44784E-01
 5.65000E+01               8.64728E-02   1.81885E-02   1.10930E-02   1.45036E-01
 5.75000E+01               8.64945E-02   1.81977E-02   1.10986E-02   1.45087E-01
 5.85000E+01               8.64989E-02   1.81995E-02   1.10997E-02   1.45097E-01
 5.95000E+01               8.64998E-02   1.81999E-02   1.10999E-02   1.45100E-01
 6.05000E+01               8.65000E-02   1.82000E-02   1.11000E-02   1.45100E-01
 6.15000E+01               8.65000E-02   1.82000E-02   1.11000E-02   1.45100E-01
 6.25000E+01               8.65000E-02   1.82000E-02   1.11000E-02   1.45100E-01
 6.35000E+01               8.65000E-02   1.82000E-02   1.11000E-02   1.45100E-01
 6.45000E+01               8.65000E-02   1.82000E-02   1.11000E-02   1.45100E-01
 6.55000E+01               8.65000E-02   1.82000E-02   1.11000E-02   1.45100E-01
 6.65000E+01               8.65000E-02   1.82000E-02   1.11000E-02   1.45100E-01
 6.75000E+01               8.65000E-02   1.82000E-02   1.11000E-02   1.45100E-01
 6.85000E+01               8.65000E-02   1.82000E-02   1.11000E-02   1.45100E-01
 6.95000E+01               8.65000E-02   1.82000E-02   1.11000E-02   1.45100E-01
 7.05000E+01               8.65000E-02   1.82000E-02   1.11000E-02   1.45100E-01
 7.15000E+01               8.65000E-02   1.82000E-02   1.11000E-02   1.45100E-01
 7.25000E+01               8.65000E-02   1.82000E-02   1.11000E-02   1.45100E-01
 7.35000E+01               8.65000E-02   1.82000E-02   1.11000E-02   1.45100E-01
 7.45000E+01               8.65000E-02   1.82000E-02   1.11000E-02   1.45100E-01
 7.55000E+01               8.65000E-02   1.82000E-02   1.11000E-02   1.45100E-01
 7.65000E+01               8.65000E-02   1.82000E-02   1.11000E-02   1.45100E-01
 7.75000E+01               8.65000E-02   1.82000E-02   1.11000E-02   1.45100E-01
 7.85000E+01               8.65000E-02   1.82000E-02   1.11000E-02   1.45100E-01
 7.95000E+01               8.65000E-02   1.82000E-02   1.11000E-02   1.45100E-01
 8.05000E+01               8.65000E-02   1.82000E-02   1.11000E-02   1.45100E-01
 8.15000E+01               8.65000E-02   1.82000E-02   1.11000E-02   1.45100E-01
 8.25000E+01               8.65000E-02   1.82000E-02   1.11000E-02   1.45100E-01
 8.35000E+01               8.65000E-02   1.82000E-02   1.11000E-02   1.45100E-01
 8.45000E+01               8.65000E-02   1.82000E-02   1.11000E-02   1.45100E-01
 8.55000E+01               8.65000E-02   1.82000E-02   1.11000E-02   1.45100E-01
 8.65000E+01               8.65000E-02   1.82000E-02   1.11000E-02   1.45100E-01
 8.75000E+01               8.65000E-02   1.82000E-02   1.11000E-02   1.45100E-01
 8.85000E+01               8.65000E-02   1.82000E-02   1.11000E-02   1.45100E-01
 8.95000E+01               8.65000E-02   1.82000E-02   1.11000E-02   1.45100E-01
 9.05000E+01               8.65000E-02   1.82000E-02   1.11000E-02   1.45100E-01
 9.15000E+01               8.65000E-02   1.82000E-02   1.11000E-02   1.45100E-01
 9.25000E+01               8.65000E-02   1.82000E-02   1.11000E-02   1.45100E-01
 9.35000E+01               8.65000E-02   1.82000E-02   1.11000E-02   1.45100E-01
 9.45000E+01               8.65000E-02   1.82000E-02   1.11000E-02   1.45100E-01
 9.55000E+01               8.65000E-02   1.82000E-02   1.11000E-02   1.45100E-01
 9.65000E+01               8.65000E-02   1.82000E-02   1.11000E-02   1.45100E-01
 9.75000E+01               8.65000E-02   1.82000E-02   1.11000E-02   1.45100E-01
 9.85000E+01               8.65000E-02   1.82000E-02   1.11000E-02   1.45100E-01
 9.95000E+01               8.65000E-02   1.82000E-02   1.11000E-02   1.45100E-01
