# Units: Mol/kgw
 TITLE = " Years"
VARIABLES = "X (meters)", "Na+       ", "Ca++      ", "Mg++      ", "Cl-       ", "
 ZONE F=POINT,I=         100
 5.00000E-01               1.30233E-02   4.85146E-04   3.04205E-04   1.46600E-02
 1.50000E+00               1.33108E-02   4.33189E-04   2.63758E-04   1.46600E-02
 2.50000E+00               1.32973E-02   4.31546E-04   2.63127E-04   1.46601E-02
 3.50000E+00               1.32474E-02   4.28294E-04   2.61156E-04   1.46607E-02
 4.50000E+00               1.31547E-02   4.22153E-04   2.57418E-04   1.46667E-02
 5.50000E+00               1.31423E-02   4.21196E-04   2.56841E-04   1.47161E-02
 6.50000E+00               1.33645E-02   4.35419E-04   2.65519E-04   1.50697E-02
 7.50000E+00               1.52845E-02   5.69497E-04   3.47281E-04   1.73018E-02
 8.50000E+00               2.48425E-02   1.50428E-03   9.17321E-04   2.93656E-02
 9.50000E+00               4.49430E-02   4.92123E-03   3.00109E-03   6.03271E-02
 1.05000E+01               6.58151E-02   1.05374E-02   6.42664E-03   9.95432E-02
 1.15000E+01               7.99741E-02   1.55528E-02   9.48568E-03   1.30116E-01
 1.25000E+01               8.54227E-02   1.77497E-02   1.08253E-02   1.42602E-01
 1.35000E+01               8.63330E-02   1.81298E-02   1.10572E-02   1.44713E-01
 1.45000E+01               8.64764E-02   1.81901E-02   1.10939E-02   1.45046E-01
 1.55000E+01               8.64970E-02   1.81987E-02   1.10992E-02   1.45093E-01
 1.65000E+01               8.64997E-02   1.81999E-02   1.10999E-02   1.45099E-01
 1.75000E+01               8.65000E-02   1.82000E-02   1.11000E-02   1.45100E-01
 1.85000E+01               8.65000E-02   1.82000E-02   1.11000E-02   1.45100E-01
 1.95000E+01               8.65000E-02   1.82000E-02   1.11000E-02   1.45100E-01
 2.05000E+01               8.65000E-02   1.82000E-02   1.11000E-02   1.45100E-01
 2.15000E+01               8.65000E-02   1.82000E-02   1.11000E-02   1.45100E-01
 2.25000E+01               8.65000E-02   1.82000E-02   1.11000E-02   1.45100E-01
 2.35000E+01               8.65000E-02   1.82000E-02   1.11000E-02   1.45100E-01
 2.45000E+01               8.65000E-02   1.82000E-02   1.11000E-02   1.45100E-01
 2.55000E+01               8.65000E-02   1.82000E-02   1.11000E-02   1.45100E-01
 2.65000E+01               8.65000E-02   1.82000E-02   1.11000E-02   1.45100E-01
 2.75000E+01               8.65000E-02   1.82000E-02   1.11000E-02   1.45100E-01
 2.85000E+01               8.65000E-02   1.82000E-02   1.11000E-02   1.45100E-01
 2.95000E+01               8.65000E-02   1.82000E-02   1.11000E-02   1.45100E-01
 3.05000E+01               8.65000E-02   1.82000E-02   1.11000E-02   1.45100E-01
 3.15000E+01               8.65000E-02   1.82000E-02   1.11000E-02   1.45100E-01
 3.25000E+01               8.65000E-02   1.82000E-02   1.11000E-02   1.45100E-01
 3.35000E+01               8.65000E-02   1.82000E-02   1.11000E-02   1.45100E-01
 3.45000E+01               8.65000E-02   1.82000E-02   1.11000E-02   1.45100E-01
 3.55000E+01               8.65000E-02   1.82000E-02   1.11000E-02   1.45100E-01
 3.65000E+01               8.65000E-02   1.82000E-02   1.11000E-02   1.45100E-01
 3.75000E+01               8.65000E-02   1.82000E-02   1.11000E-02   1.45100E-01
 3.85000E+01               8.65000E-02   1.82000E-02   1.11000E-02   1.45100E-01
 3.95000E+01               8.65000E-02   1.82000E-02   1.11000E-02   1.45100E-01
 4.05000E+01               8.65000E-02   1.82000E-02   1.11000E-02   1.45100E-01
 4.15000E+01               8.65000E-02   1.82000E-02   1.11000E-02   1.45100E-01
 4.25000E+01               8.65000E-02   1.82000E-02   1.11000E-02   1.45100E-01
 4.35000E+01               8.65000E-02   1.82000E-02   1.11000E-02   1.45100E-01
 4.45000E+01               8.65000E-02   1.82000E-02   1.11000E-02   1.45100E-01
 4.55000E+01               8.65000E-02   1.82000E-02   1.11000E-02   1.45100E-01
 4.65000E+01               8.65000E-02   1.82000E-02   1.11000E-02   1.45100E-01
 4.75000E+01               8.65000E-02   1.82000E-02   1.11000E-02   1.45100E-01
 4.85000E+01               8.65000E-02   1.82000E-02   1.11000E-02   1.45100E-01
 4.95000E+01               8.65000E-02   1.82000E-02   1.11000E-02   1.45100E-01
 5.05000E+01               8.65000E-02   1.82000E-02   1.11000E-02   1.45100E-01
 5.15000E+01               8.65000E-02   1.82000E-02   1.11000E-02   1.45100E-01
 5.25000E+01               8.65000E-02   1.82000E-02   1.11000E-02   1.45100E-01
 5.35000E+01               8.65000E-02   1.82000E-02   1.11000E-02   1.45100E-01
 5.45000E+01               8.65000E-02   1.82000E-02   1.11000E-02   1.45100E-01
 5.55000E+01               8.65000E-02   1.82000E-02   1.11000E-02   1.45100E-01
 5.65000E+01               8.65000E-02   1.82000E-02   1.11000E-02   1.45100E-01
 5.75000E+01               8.65000E-02   1.82000E-02   1.11000E-02   1.45100E-01
 5.85000E+01               8.65000E-02   1.82000E-02   1.11000E-02   1.45100E-01
 5.95000E+01               8.65000E-02   1.82000E-02   1.11000E-02   1.45100E-01
 6.05000E+01               8.65000E-02   1.82000E-02   1.11000E-02   1.45100E-01
 6.15000E+01               8.65000E-02   1.82000E-02   1.11000E-02   1.45100E-01
 6.25000E+01               8.65000E-02   1.82000E-02   1.11000E-02   1.45100E-01
 6.35000E+01               8.65000E-02   1.82000E-02   1.11000E-02   1.45100E-01
 6.45000E+01               8.65000E-02   1.82000E-02   1.11000E-02   1.45100E-01
 6.55000E+01               8.65000E-02   1.82000E-02   1.11000E-02   1.45100E-01
 6.65000E+01               8.65000E-02   1.82000E-02   1.11000E-02   1.45100E-01
 6.75000E+01               8.65000E-02   1.82000E-02   1.11000E-02   1.45100E-01
 6.85000E+01               8.65000E-02   1.82000E-02   1.11000E-02   1.45100E-01
 6.95000E+01               8.65000E-02   1.82000E-02   1.11000E-02   1.45100E-01
 7.05000E+01               8.65000E-02   1.82000E-02   1.11000E-02   1.45100E-01
 7.15000E+01               8.65000E-02   1.82000E-02   1.11000E-02   1.45100E-01
 7.25000E+01               8.65000E-02   1.82000E-02   1.11000E-02   1.45100E-01
 7.35000E+01               8.65000E-02   1.82000E-02   1.11000E-02   1.45100E-01
 7.45000E+01               8.65000E-02   1.82000E-02   1.11000E-02   1.45100E-01
 7.55000E+01               8.65000E-02   1.82000E-02   1.11000E-02   1.45100E-01
 7.65000E+01               8.65000E-02   1.82000E-02   1.11000E-02   1.45100E-01
 7.75000E+01               8.65000E-02   1.82000E-02   1.11000E-02   1.45100E-01
 7.85000E+01               8.65000E-02   1.82000E-02   1.11000E-02   1.45100E-01
 7.95000E+01               8.65000E-02   1.82000E-02   1.11000E-02   1.45100E-01
 8.05000E+01               8.65000E-02   1.82000E-02   1.11000E-02   1.45100E-01
 8.15000E+01               8.65000E-02   1.82000E-02   1.11000E-02   1.45100E-01
 8.25000E+01               8.65000E-02   1.82000E-02   1.11000E-02   1.45100E-01
 8.35000E+01               8.65000E-02   1.82000E-02   1.11000E-02   1.45100E-01
 8.45000E+01               8.65000E-02   1.82000E-02   1.11000E-02   1.45100E-01
 8.55000E+01               8.65000E-02   1.82000E-02   1.11000E-02   1.45100E-01
 8.65000E+01               8.65000E-02   1.82000E-02   1.11000E-02   1.45100E-01
 8.75000E+01               8.65000E-02   1.82000E-02   1.11000E-02   1.45100E-01
 8.85000E+01               8.65000E-02   1.82000E-02   1.11000E-02   1.45100E-01
 8.95000E+01               8.65000E-02   1.82000E-02   1.11000E-02   1.45100E-01
 9.05000E+01               8.65000E-02   1.82000E-02   1.11000E-02   1.45100E-01
 9.15000E+01               8.65000E-02   1.82000E-02   1.11000E-02   1.45100E-01
 9.25000E+01               8.65000E-02   1.82000E-02   1.11000E-02   1.45100E-01
 9.35000E+01               8.65000E-02   1.82000E-02   1.11000E-02   1.45100E-01
 9.45000E+01               8.65000E-02   1.82000E-02   1.11000E-02   1.45100E-01
 9.55000E+01               8.65000E-02   1.82000E-02   1.11000E-02   1.45100E-01
 9.65000E+01               8.65000E-02   1.82000E-02   1.11000E-02   1.45100E-01
 9.75000E+01               8.65000E-02   1.82000E-02   1.11000E-02   1.45100E-01
 9.85000E+01               8.65000E-02   1.82000E-02   1.11000E-02   1.45100E-01
 9.95000E+01               8.65000E-02   1.82000E-02   1.11000E-02   1.45100E-01
