 TITLE = " Years"
 VARIABLES = "X (meters)", "pH "
 ZONE F=POINT,I=         100
 5.00000E-01               5.00000E+00
 1.50000E+00               5.00000E+00
 2.50000E+00               5.00000E+00
 3.50000E+00               5.00000E+00
 4.50000E+00               5.00000E+00
 5.50000E+00               5.00000E+00
 6.50000E+00               5.00001E+00
 7.50000E+00               5.00002E+00
 8.50000E+00               5.00008E+00
 9.50000E+00               5.00028E+00
 1.05000E+01               5.00099E+00
 1.15000E+01               5.00336E+00
 1.25000E+01               5.01126E+00
 1.35000E+01               5.03710E+00
 1.45000E+01               5.11746E+00
 1.55000E+01               5.32802E+00
 1.65000E+01               5.72088E+00
 1.75000E+01               6.30287E+00
 1.85000E+01               7.70187E+00
 1.95000E+01               7.75290E+00
 2.05000E+01               7.75349E+00
 2.15000E+01               7.75394E+00
 2.25000E+01               7.75460E+00
 2.35000E+01               7.75553E+00
 2.45000E+01               7.75682E+00
 2.55000E+01               7.75856E+00
 2.65000E+01               7.76083E+00
 2.75000E+01               7.76374E+00
 2.85000E+01               7.76738E+00
 2.95000E+01               7.77184E+00
 3.05000E+01               7.77718E+00
 3.15000E+01               7.78346E+00
 3.25000E+01               7.79071E+00
 3.35000E+01               7.79893E+00
 3.45000E+01               7.80810E+00
 3.55000E+01               7.81817E+00
 3.65000E+01               7.82904E+00
 3.75000E+01               7.84061E+00
 3.85000E+01               7.85273E+00
 3.95000E+01               7.86525E+00
 4.05000E+01               7.87799E+00
 4.15000E+01               7.89077E+00
 4.25000E+01               7.90341E+00
 4.35000E+01               7.91573E+00
 4.45000E+01               7.92757E+00
 4.55000E+01               7.93880E+00
 4.65000E+01               7.94930E+00
 4.75000E+01               7.95897E+00
 4.85000E+01               7.96778E+00
 4.95000E+01               7.97568E+00
 5.05000E+01               7.98267E+00
 5.15000E+01               7.98880E+00
 5.25000E+01               7.99409E+00
 5.35000E+01               7.99861E+00
 5.45000E+01               8.00243E+00
 5.55000E+01               8.00561E+00
 5.65000E+01               8.00825E+00
 5.75000E+01               8.01040E+00
 5.85000E+01               8.01215E+00
 5.95000E+01               8.01355E+00
 6.05000E+01               8.01466E+00
 6.15000E+01               8.01554E+00
 6.25000E+01               8.01623E+00
 6.35000E+01               8.01676E+00
 6.45000E+01               8.01717E+00
 6.55000E+01               8.01749E+00
 6.65000E+01               8.01772E+00
 6.75000E+01               8.01790E+00
 6.85000E+01               8.01804E+00
 6.95000E+01               8.01814E+00
 7.05000E+01               8.01821E+00
 7.15000E+01               8.01826E+00
 7.25000E+01               8.01830E+00
 7.35000E+01               8.01833E+00
 7.45000E+01               8.01835E+00
 7.55000E+01               8.01837E+00
 7.65000E+01               8.01838E+00
 7.75000E+01               8.01838E+00
 7.85000E+01               8.01839E+00
 7.95000E+01               8.01839E+00
 8.05000E+01               8.01839E+00
 8.15000E+01               8.01840E+00
 8.25000E+01               8.01840E+00
 8.35000E+01               8.01840E+00
 8.45000E+01               8.01840E+00
 8.55000E+01               8.01840E+00
 8.65000E+01               8.01840E+00
 8.75000E+01               8.01840E+00
 8.85000E+01               8.01840E+00
 8.95000E+01               8.01840E+00
 9.05000E+01               8.01840E+00
 9.15000E+01               8.01840E+00
 9.25000E+01               8.01840E+00
 9.35000E+01               8.01840E+00
 9.45000E+01               8.01840E+00
 9.55000E+01               8.01840E+00
 9.65000E+01               8.01840E+00
 9.75000E+01               8.01840E+00
 9.85000E+01               8.01840E+00
 9.95000E+01               8.01840E+00
