 TITLE = " Years"
 VARIABLES = "X (meters)", "pH "
 ZONE F=POINT,I=         100
 5.00000E-01               5.00000E+00
 1.50000E+00               5.00000E+00
 2.50000E+00               5.00000E+00
 3.50000E+00               5.00000E+00
 4.50000E+00               5.00000E+00
 5.50000E+00               5.00000E+00
 6.50000E+00               5.00000E+00
 7.50000E+00               5.00000E+00
 8.50000E+00               5.00000E+00
 9.50000E+00               5.00000E+00
 1.05000E+01               5.00000E+00
 1.15000E+01               5.00001E+00
 1.25000E+01               5.00005E+00
 1.35000E+01               5.00016E+00
 1.45000E+01               5.00055E+00
 1.55000E+01               5.00185E+00
 1.65000E+01               5.00620E+00
 1.75000E+01               5.02064E+00
 1.85000E+01               5.06705E+00
 1.95000E+01               5.20202E+00
 2.05000E+01               5.50146E+00
 2.15000E+01               5.98133E+00
 2.25000E+01               6.71167E+00
 2.35000E+01               7.73917E+00
 2.45000E+01               7.75282E+00
 2.55000E+01               7.75299E+00
 2.65000E+01               7.75315E+00
 2.75000E+01               7.75337E+00
 2.85000E+01               7.75370E+00
 2.95000E+01               7.75417E+00
 3.05000E+01               7.75481E+00
 3.15000E+01               7.75567E+00
 3.25000E+01               7.75682E+00
 3.35000E+01               7.75830E+00
 3.45000E+01               7.76019E+00
 3.55000E+01               7.76255E+00
 3.65000E+01               7.76545E+00
 3.75000E+01               7.76894E+00
 3.85000E+01               7.77309E+00
 3.95000E+01               7.77794E+00
 4.05000E+01               7.78354E+00
 4.15000E+01               7.78989E+00
 4.25000E+01               7.79702E+00
 4.35000E+01               7.80491E+00
 4.45000E+01               7.81352E+00
 4.55000E+01               7.82281E+00
 4.65000E+01               7.83271E+00
 4.75000E+01               7.84314E+00
 4.85000E+01               7.85399E+00
 4.95000E+01               7.86516E+00
 5.05000E+01               7.87651E+00
 5.15000E+01               7.88793E+00
 5.25000E+01               7.89928E+00
 5.35000E+01               7.91043E+00
 5.45000E+01               7.92127E+00
 5.55000E+01               7.93167E+00
 5.65000E+01               7.94155E+00
 5.75000E+01               7.95083E+00
 5.85000E+01               7.95945E+00
 5.95000E+01               7.96737E+00
 6.05000E+01               7.97456E+00
 6.15000E+01               7.98103E+00
 6.25000E+01               7.98678E+00
 6.35000E+01               7.99185E+00
 6.45000E+01               7.99626E+00
 6.55000E+01               8.00008E+00
 6.65000E+01               8.00334E+00
 6.75000E+01               8.00611E+00
 6.85000E+01               8.00844E+00
 6.95000E+01               8.01038E+00
 7.05000E+01               8.01198E+00
 7.15000E+01               8.01330E+00
 7.25000E+01               8.01437E+00
 7.35000E+01               8.01523E+00
 7.45000E+01               8.01593E+00
 7.55000E+01               8.01648E+00
 7.65000E+01               8.01692E+00
 7.75000E+01               8.01726E+00
 7.85000E+01               8.01753E+00
 7.95000E+01               8.01774E+00
 8.05000E+01               8.01790E+00
 8.15000E+01               8.01803E+00
 8.25000E+01               8.01812E+00
 8.35000E+01               8.01819E+00
 8.45000E+01               8.01825E+00
 8.55000E+01               8.01829E+00
 8.65000E+01               8.01832E+00
 8.75000E+01               8.01834E+00
 8.85000E+01               8.01836E+00
 8.95000E+01               8.01837E+00
 9.05000E+01               8.01838E+00
 9.15000E+01               8.01838E+00
 9.25000E+01               8.01839E+00
 9.35000E+01               8.01839E+00
 9.45000E+01               8.01839E+00
 9.55000E+01               8.01840E+00
 9.65000E+01               8.01840E+00
 9.75000E+01               8.01840E+00
 9.85000E+01               8.01840E+00
 9.95000E+01               8.01840E+00
