# Units: Mol/kgw
 TITLE = " Years"
VARIABLES = "X (meters)", "H+        ", "HCO3-     ", "Ca++      ", "Tracer    ", "
 ZONE F=POINT,I=         100
 5.00000E-01               9.66444E-04   1.00000E-03   1.67780E-05   1.00000E-03
 1.50000E+00               9.66444E-04   1.00000E-03   1.67780E-05   1.00000E-03
 2.50000E+00               9.66444E-04   1.00000E-03   1.67780E-05   1.00000E-03
 3.50000E+00               9.66444E-04   1.00000E-03   1.67780E-05   1.00000E-03
 4.50000E+00               9.66444E-04   1.00000E-03   1.67780E-05   1.00000E-03
 5.50000E+00               9.66444E-04   1.00000E-03   1.67781E-05   1.00000E-03
 6.50000E+00               9.66444E-04   1.00000E-03   1.67783E-05   1.00000E-03
 7.50000E+00               9.66443E-04   1.00000E-03   1.67793E-05   1.00000E-03
 8.50000E+00               9.66439E-04   1.00000E-03   1.67827E-05   9.99999E-04
 9.50000E+00               9.66426E-04   1.00002E-03   1.67948E-05   9.99998E-04
 1.05000E+01               9.66383E-04   1.00006E-03   1.68370E-05   9.99996E-04
 1.15000E+01               9.66237E-04   1.00021E-03   1.69806E-05   9.99990E-04
 1.25000E+01               9.65747E-04   1.00069E-03   1.74644E-05   9.99977E-04
 1.35000E+01               9.64108E-04   1.00233E-03   1.90912E-05   9.99949E-04
 1.45000E+01               9.58583E-04   1.00784E-03   2.45907E-05   9.99893E-04
 1.55000E+01               9.39937E-04   1.02647E-03   4.31886E-05   9.99785E-04
 1.65000E+01               8.77663E-04   1.08870E-03   1.05374E-04   9.99588E-04
 1.75000E+01               6.67953E-04   1.29835E-03   3.14929E-04   9.99242E-04
 1.85000E+01               6.30494E-05   1.90314E-03   9.19572E-04   9.98661E-04
 1.95000E+01               5.36799E-05   1.91234E-03   9.28518E-04   9.97720E-04
 2.05000E+01               5.35741E-05   1.91217E-03   9.27964E-04   9.96249E-04
 2.15000E+01               5.34915E-05   1.91183E-03   9.27048E-04   9.94027E-04
 2.25000E+01               5.33710E-05   1.91135E-03   9.25710E-04   9.90777E-04
 2.35000E+01               5.32002E-05   1.91065E-03   9.23811E-04   9.86168E-04
 2.45000E+01               5.29648E-05   1.90970E-03   9.21195E-04   9.79818E-04
 2.55000E+01               5.26494E-05   1.90842E-03   9.17691E-04   9.71312E-04
 2.65000E+01               5.22382E-05   1.90676E-03   9.13120E-04   9.60216E-04
 2.75000E+01               5.17153E-05   1.90464E-03   9.07305E-04   9.46102E-04
 2.85000E+01               5.10664E-05   1.90201E-03   9.00087E-04   9.28582E-04
 2.95000E+01               5.02799E-05   1.89881E-03   8.91332E-04   9.07331E-04
 3.05000E+01               4.93477E-05   1.89503E-03   8.80945E-04   8.82124E-04
 3.15000E+01               4.82661E-05   1.89063E-03   8.68884E-04   8.52854E-04
 3.25000E+01               4.70370E-05   1.88562E-03   8.55161E-04   8.19556E-04
 3.35000E+01               4.56674E-05   1.88004E-03   8.39853E-04   7.82414E-04
 3.45000E+01               4.41700E-05   1.87393E-03   8.23097E-04   7.41762E-04
 3.55000E+01               4.25622E-05   1.86735E-03   8.05087E-04   6.98072E-04
 3.65000E+01               4.08657E-05   1.86041E-03   7.86066E-04   6.51933E-04
 3.75000E+01               3.91053E-05   1.85320E-03   7.66315E-04   6.04025E-04
 3.85000E+01               3.73076E-05   1.84584E-03   7.46137E-04   5.55085E-04
 3.95000E+01               3.54997E-05   1.83843E-03   7.25847E-04   5.05872E-04
 4.05000E+01               3.37084E-05   1.83110E-03   7.05753E-04   4.57132E-04
 4.15000E+01               3.19585E-05   1.82394E-03   6.86143E-04   4.09563E-04
 4.25000E+01               3.02725E-05   1.81706E-03   6.67277E-04   3.63792E-04
 4.35000E+01               2.86693E-05   1.81053E-03   6.49374E-04   3.20351E-04
 4.45000E+01               2.71645E-05   1.80442E-03   6.32611E-04   2.79668E-04
 4.55000E+01               2.57696E-05   1.79877E-03   6.17117E-04   2.42054E-04
 4.65000E+01               2.44923E-05   1.79361E-03   6.02972E-04   2.07708E-04
 4.75000E+01               2.33365E-05   1.78897E-03   5.90215E-04   1.76723E-04
 4.85000E+01               2.23028E-05   1.78483E-03   5.78844E-04   1.49097E-04
 4.95000E+01               2.13887E-05   1.78119E-03   5.68822E-04   1.24743E-04
 5.05000E+01               2.05894E-05   1.77801E-03   5.60087E-04   1.03510E-04
 5.15000E+01               1.98979E-05   1.77527E-03   5.52555E-04   8.51945E-05
 5.25000E+01               1.93062E-05   1.77294E-03   5.46126E-04   6.95594E-05
 5.35000E+01               1.88049E-05   1.77096E-03   5.40694E-04   5.63466E-05
 5.45000E+01               1.83846E-05   1.76931E-03   5.36150E-04   4.52900E-05
 5.55000E+01               1.80356E-05   1.76795E-03   5.32384E-04   3.61257E-05
 5.65000E+01               1.77486E-05   1.76682E-03   5.29292E-04   2.85999E-05
 5.75000E+01               1.75146E-05   1.76591E-03   5.26776E-04   2.24754E-05
 5.85000E+01               1.73257E-05   1.76518E-03   5.24746E-04   1.75348E-05
 5.95000E+01               1.71745E-05   1.76459E-03   5.23123E-04   1.35832E-05
 6.05000E+01               1.70544E-05   1.76412E-03   5.21836E-04   1.04490E-05
 6.15000E+01               1.69599E-05   1.76375E-03   5.20823E-04   7.98304E-06
 6.25000E+01               1.68861E-05   1.76347E-03   5.20033E-04   6.05824E-06
 6.35000E+01               1.68289E-05   1.76325E-03   5.19420E-04   4.56734E-06
 6.45000E+01               1.67849E-05   1.76307E-03   5.18950E-04   3.42118E-06
 6.55000E+01               1.67513E-05   1.76294E-03   5.18591E-04   2.54647E-06
 6.65000E+01               1.67259E-05   1.76285E-03   5.18318E-04   1.88368E-06
 6.75000E+01               1.67067E-05   1.76277E-03   5.18114E-04   1.38495E-06
 6.85000E+01               1.66924E-05   1.76272E-03   5.17961E-04   1.01221E-06
 6.95000E+01               1.66818E-05   1.76267E-03   5.17847E-04   7.35484E-07
 7.05000E+01               1.66739E-05   1.76264E-03   5.17763E-04   5.31360E-07
 7.15000E+01               1.66682E-05   1.76262E-03   5.17702E-04   3.81741E-07
 7.25000E+01               1.66640E-05   1.76261E-03   5.17657E-04   2.72749E-07
 7.35000E+01               1.66610E-05   1.76259E-03   5.17624E-04   1.93828E-07
 7.45000E+01               1.66588E-05   1.76259E-03   5.17601E-04   1.37019E-07
 7.55000E+01               1.66572E-05   1.76258E-03   5.17584E-04   9.63598E-08
 7.65000E+01               1.66561E-05   1.76258E-03   5.17573E-04   6.74235E-08
 7.75000E+01               1.66553E-05   1.76257E-03   5.17564E-04   4.69428E-08
 7.85000E+01               1.66548E-05   1.76257E-03   5.17558E-04   3.25247E-08
 7.95000E+01               1.66544E-05   1.76257E-03   5.17554E-04   2.24278E-08
 8.05000E+01               1.66541E-05   1.76257E-03   5.17551E-04   1.53932E-08
 8.15000E+01               1.66539E-05   1.76257E-03   5.17549E-04   1.05167E-08
 8.25000E+01               1.66538E-05   1.76257E-03   5.17548E-04   7.15284E-09
 8.35000E+01               1.66537E-05   1.76257E-03   5.17547E-04   4.84358E-09
 8.45000E+01               1.66536E-05   1.76257E-03   5.17546E-04   3.26572E-09
 8.55000E+01               1.66536E-05   1.76257E-03   5.17546E-04   2.19256E-09
 8.65000E+01               1.66536E-05   1.76257E-03   5.17546E-04   1.46597E-09
 8.75000E+01               1.66535E-05   1.76257E-03   5.17545E-04   9.76176E-10
 8.85000E+01               1.66535E-05   1.76257E-03   5.17545E-04   6.47440E-10
 8.95000E+01               1.66535E-05   1.76257E-03   5.17545E-04   4.27731E-10
 9.05000E+01               1.66535E-05   1.76257E-03   5.17545E-04   2.81498E-10
 9.15000E+01               1.66535E-05   1.76257E-03   5.17545E-04   1.84564E-10
 9.25000E+01               1.66535E-05   1.76257E-03   5.17545E-04   1.20563E-10
 9.35000E+01               1.66535E-05   1.76257E-03   5.17545E-04   7.84706E-11
 9.45000E+01               1.66535E-05   1.76257E-03   5.17545E-04   5.08930E-11
 9.55000E+01               1.66535E-05   1.76257E-03   5.17545E-04   3.28924E-11
 9.65000E+01               1.66535E-05   1.76257E-03   5.17545E-04   2.11859E-11
 9.75000E+01               1.66535E-05   1.76257E-03   5.17545E-04   1.36001E-11
 9.85000E+01               1.66535E-05   1.76257E-03   5.17545E-04   8.70255E-12
 9.95000E+01               1.66535E-05   1.76257E-03   5.17545E-04   5.58998E-12
