# Units: Mol/kgw
 TITLE = " Years"
VARIABLES = "X (meters)", "H+        ", "HCO3-     ", "Ca++      ", "Tracer    ", "
 ZONE F=POINT,I=         100
 5.00000E-01               9.66444E-04   1.00000E-03   1.67780E-05   1.00000E-03
 1.50000E+00               9.66444E-04   1.00000E-03   1.67780E-05   1.00000E-03
 2.50000E+00               9.66444E-04   1.00000E-03   1.67780E-05   1.00000E-03
 3.50000E+00               9.66444E-04   1.00000E-03   1.67780E-05   1.00000E-03
 4.50000E+00               9.66444E-04   1.00000E-03   1.67780E-05   1.00000E-03
 5.50000E+00               9.66444E-04   1.00000E-03   1.67780E-05   1.00000E-03
 6.50000E+00               9.66444E-04   1.00000E-03   1.67780E-05   1.00000E-03
 7.50000E+00               9.66444E-04   1.00000E-03   1.67780E-05   1.00000E-03
 8.50000E+00               9.66444E-04   1.00000E-03   1.67780E-05   1.00000E-03
 9.50000E+00               9.66444E-04   1.00000E-03   1.67780E-05   1.00000E-03
 1.05000E+01               9.66444E-04   1.00000E-03   1.67780E-05   1.00000E-03
 1.15000E+01               9.66444E-04   1.00000E-03   1.67780E-05   1.00000E-03
 1.25000E+01               9.66444E-04   1.00000E-03   1.67780E-05   1.00000E-03
 1.35000E+01               9.66444E-04   1.00000E-03   1.67782E-05   1.00000E-03
 1.45000E+01               9.66439E-04   1.00001E-03   1.67831E-05   1.00000E-03
 1.55000E+01               9.66316E-04   1.00013E-03   1.69056E-05   1.00000E-03
 1.65000E+01               9.63282E-04   1.00316E-03   1.99400E-05   1.00000E-03
 1.75000E+01               9.01424E-04   1.06502E-03   8.18026E-05   1.00000E-03
 1.85000E+01               5.90883E-05   1.90734E-03   9.24193E-04   1.00000E-03
 1.95000E+01               5.37631E-05   1.91273E-03   9.29515E-04   1.00000E-03
 2.05000E+01               5.37190E-05   1.91279E-03   9.29534E-04   1.00000E-03
 2.15000E+01               5.37176E-05   1.91279E-03   9.29521E-04   1.00000E-03
 2.25000E+01               5.37147E-05   1.91279E-03   9.29482E-04   1.00000E-03
 2.35000E+01               5.37094E-05   1.91276E-03   9.29429E-04   1.00000E-03
 2.45000E+01               5.37021E-05   1.91269E-03   9.29390E-04   1.00000E-03
 2.55000E+01               5.36953E-05   1.91259E-03   9.29386E-04   1.00000E-03
 2.65000E+01               5.36911E-05   1.91251E-03   9.29405E-04   1.00000E-03
 2.75000E+01               5.36947E-05   1.91249E-03   9.29482E-04   1.00000E-03
 2.85000E+01               5.37040E-05   1.91251E-03   9.29603E-04   1.00000E-03
 2.95000E+01               5.37210E-05   1.91265E-03   9.29722E-04   9.99999E-04
 3.05000E+01               5.37432E-05   1.91291E-03   9.29792E-04   9.99994E-04
 3.15000E+01               5.37603E-05   1.91316E-03   9.29799E-04   9.99974E-04
 3.25000E+01               5.37642E-05   1.91324E-03   9.29770E-04   9.99885E-04
 3.35000E+01               5.37527E-05   1.91323E-03   9.29599E-04   9.99500E-04
 3.45000E+01               5.36894E-05   1.91302E-03   9.28798E-04   9.97854E-04
 3.55000E+01               5.34075E-05   1.91193E-03   9.25420E-04   9.90954E-04
 3.65000E+01               5.22748E-05   1.90735E-03   9.12243E-04   9.63432E-04
 3.75000E+01               4.93894E-05   1.89531E-03   8.79828E-04   8.87862E-04
 3.85000E+01               4.47023E-05   1.87561E-03   8.27538E-04   7.59898E-04
 3.95000E+01               3.86494E-05   1.85021E-03   7.59954E-04   5.91663E-04
 4.05000E+01               3.20852E-05   1.82291E-03   6.86678E-04   4.08663E-04
 4.15000E+01               2.60232E-05   1.79815E-03   6.19403E-04   2.41578E-04
 4.25000E+01               2.12783E-05   1.77933E-03   5.67386E-04   1.14275E-04
 4.35000E+01               1.82839E-05   1.76791E-03   5.35072E-04   3.73528E-05
 4.45000E+01               1.69549E-05   1.76316E-03   5.20929E-04   6.12597E-06
 4.55000E+01               1.66983E-05   1.76231E-03   5.18210E-04   8.49580E-07
 4.65000E+01               1.66638E-05   1.76220E-03   5.17845E-04   1.19357E-07
 4.75000E+01               1.66589E-05   1.76218E-03   5.17793E-04   1.67205E-08
 4.85000E+01               1.66582E-05   1.76218E-03   5.17786E-04   2.18561E-09
 4.95000E+01               1.66581E-05   1.76218E-03   5.17785E-04   2.01591E-10
 5.05000E+01               1.66581E-05   1.76218E-03   5.17785E-04   7.22982E-16
 5.15000E+01               1.66581E-05   1.76218E-03   5.17785E-04   6.83128E-17
 5.25000E+01               1.66581E-05   1.76218E-03   5.17785E-04   2.86503E-18
 5.35000E+01               1.66581E-05   1.76218E-03   5.17785E-04   1.84953E-19
 5.45000E+01               1.66581E-05   1.76218E-03   5.17785E-04   7.96538E-21
 5.55000E+01               1.66581E-05   1.76218E-03   5.17785E-04   6.04954E-22
 5.65000E+01               1.66581E-05   1.76218E-03   5.17785E-04   6.31697E-23
 5.75000E+01               1.66581E-05   1.76218E-03   5.17785E-04   7.88720E-24
 5.85000E+01               1.66581E-05   1.76218E-03   5.17785E-04   9.59352E-25
 5.95000E+01               1.66581E-05   1.76218E-03   5.17785E-04   1.22140E-25
 6.05000E+01               1.66581E-05   1.76218E-03   5.17785E-04   1.76398E-26
 6.15000E+01               1.66581E-05   1.76218E-03   5.17785E-04   2.72169E-27
 6.25000E+01               1.66581E-05   1.76218E-03   5.17785E-04   4.41604E-28
 6.35000E+01               1.66581E-05   1.76218E-03   5.17785E-04   7.63561E-29
 6.45000E+01               1.66581E-05   1.76218E-03   5.17785E-04   1.35960E-29
 6.55000E+01               1.66581E-05   1.76218E-03   5.17785E-04   3.06440E-30
 6.65000E+01               1.66581E-05   1.76218E-03   5.17785E-04   2.11009E-30
 6.75000E+01               1.66581E-05   1.76218E-03   5.17785E-04   1.69316E-30
 6.85000E+01               1.66581E-05   1.76218E-03   5.17785E-04   1.40439E-30
 6.95000E+01               1.66581E-05   1.76218E-03   5.17785E-04   1.21926E-30
 7.05000E+01               1.66581E-05   1.76218E-03   5.17785E-04   1.11332E-30
 7.15000E+01               1.66581E-05   1.76218E-03   5.17785E-04   1.05653E-30
 7.25000E+01               1.66581E-05   1.76218E-03   5.17785E-04   1.02740E-30
 7.35000E+01               1.66581E-05   1.76218E-03   5.17785E-04   1.01294E-30
 7.45000E+01               1.66581E-05   1.76218E-03   5.17785E-04   1.00596E-30
 7.55000E+01               1.66581E-05   1.76218E-03   5.17785E-04   1.00267E-30
 7.65000E+01               1.66581E-05   1.76218E-03   5.17785E-04   1.00117E-30
 7.75000E+01               1.66581E-05   1.76218E-03   5.17785E-04   1.00050E-30
 7.85000E+01               1.66581E-05   1.76218E-03   5.17785E-04   1.00021E-30
 7.95000E+01               1.66581E-05   1.76218E-03   5.17785E-04   1.00008E-30
 8.05000E+01               1.66581E-05   1.76218E-03   5.17785E-04   1.00003E-30
 8.15000E+01               1.66581E-05   1.76218E-03   5.17785E-04   1.00001E-30
 8.25000E+01               1.66581E-05   1.76218E-03   5.17785E-04   1.00000E-30
 8.35000E+01               1.66581E-05   1.76218E-03   5.17785E-04   1.00000E-30
 8.45000E+01               1.66581E-05   1.76218E-03   5.17785E-04   1.00000E-30
 8.55000E+01               1.66581E-05   1.76218E-03   5.17785E-04   1.00000E-30
 8.65000E+01               1.66581E-05   1.76218E-03   5.17785E-04   1.00000E-30
 8.75000E+01               1.66581E-05   1.76218E-03   5.17785E-04   1.00000E-30
 8.85000E+01               1.66581E-05   1.76218E-03   5.17785E-04   1.00000E-30
 8.95000E+01               1.66581E-05   1.76218E-03   5.17785E-04   1.00000E-30
 9.05000E+01               1.66581E-05   1.76218E-03   5.17785E-04   1.00000E-30
 9.15000E+01               1.66581E-05   1.76218E-03   5.17785E-04   1.00000E-30
 9.25000E+01               1.66581E-05   1.76218E-03   5.17785E-04   1.00000E-30
 9.35000E+01               1.66581E-05   1.76218E-03   5.17785E-04   1.00000E-30
 9.45000E+01               1.66581E-05   1.76218E-03   5.17785E-04   1.00000E-30
 9.55000E+01               1.66581E-05   1.76218E-03   5.17785E-04   1.00000E-30
 9.65000E+01               1.66581E-05   1.76218E-03   5.17785E-04   1.00000E-30
 9.75000E+01               1.66581E-05   1.76218E-03   5.17785E-04   1.00000E-30
 9.85000E+01               1.66581E-05   1.76218E-03   5.17785E-04   1.00000E-30
 9.95000E+01               1.66581E-05   1.76218E-03   5.17785E-04   1.00000E-30
