# Units: Mol/kgw
 TITLE = " Years"
VARIABLES = "X (meters)", "H+        ", "HCO3-     ", "Ca++      ", "Tracer    ", "
 ZONE F=POINT,I=         100
 5.00000E-01               9.66128E-04   1.00000E-03   1.69361E-05   1.00000E-03
 1.50000E+00               9.66128E-04   1.00000E-03   1.69361E-05   1.00000E-03
 2.50000E+00               9.66128E-04   1.00000E-03   1.69361E-05   1.00000E-03
 3.50000E+00               9.66128E-04   1.00000E-03   1.69361E-05   1.00000E-03
 4.50000E+00               9.66128E-04   1.00000E-03   1.69364E-05   1.00000E-03
 5.50000E+00               9.66120E-04   1.00001E-03   1.69435E-05   1.00000E-03
 6.50000E+00               9.65939E-04   1.00019E-03   1.71252E-05   1.00000E-03
 7.50000E+00               9.61209E-04   1.00492E-03   2.18541E-05   1.00000E-03
 8.50000E+00               8.55076E-04   1.11098E-03   1.27950E-04   1.00000E-03
 9.50000E+00               5.73241E-05   1.90828E-03   9.25566E-04   1.00000E-03
 1.05000E+01               5.25110E-05   1.91370E-03   9.30863E-04   9.99999E-04
 1.15000E+01               5.25359E-05   1.91413E-03   9.30977E-04   9.99997E-04
 1.25000E+01               5.25454E-05   1.91427E-03   9.30985E-04   9.99982E-04
 1.35000E+01               5.25435E-05   1.91427E-03   9.30948E-04   9.99899E-04
 1.45000E+01               5.25223E-05   1.91420E-03   9.30695E-04   9.99475E-04
 1.55000E+01               5.24165E-05   1.91369E-03   9.29564E-04   9.97420E-04
 1.65000E+01               5.19567E-05   1.91124E-03   9.24907E-04   9.87804E-04
 1.75000E+01               5.01289E-05   1.90108E-03   9.06712E-04   9.46548E-04
 1.85000E+01               4.54963E-05   1.87482E-03   8.60546E-04   8.21686E-04
 1.95000E+01               3.85110E-05   1.83452E-03   7.89488E-04   6.17768E-04
 2.05000E+01               3.07211E-05   1.78872E-03   7.08208E-04   3.84065E-04
 2.15000E+01               2.39622E-05   1.74849E-03   6.36259E-04   1.81543E-04
 2.25000E+01               1.95774E-05   1.72249E-03   5.89109E-04   5.48651E-05
 2.35000E+01               1.77283E-05   1.71177E-03   5.69144E-04   7.83846E-06
 2.45000E+01               1.74288E-05   1.71010E-03   5.65895E-04   9.67897E-07
 2.55000E+01               1.73921E-05   1.70989E-03   5.65496E-04   1.24414E-07
 2.65000E+01               1.73872E-05   1.70987E-03   5.65443E-04   1.54987E-08
 2.75000E+01               1.73866E-05   1.70986E-03   5.65436E-04   1.74884E-09
 2.85000E+01               1.73865E-05   1.70986E-03   5.65436E-04   9.69365E-11
 2.95000E+01               1.73865E-05   1.70986E-03   5.65435E-04   6.00263E-18
 3.05000E+01               1.73865E-05   1.70986E-03   5.65435E-04   4.01820E-19
 3.15000E+01               1.73865E-05   1.70986E-03   5.65435E-04   3.47632E-20
 3.25000E+01               1.73865E-05   1.70986E-03   5.65435E-04   1.16716E-21
 3.35000E+01               1.73865E-05   1.70986E-03   5.65435E-04   5.15826E-23
 3.45000E+01               1.73865E-05   1.70986E-03   5.65435E-04   3.30569E-24
 3.55000E+01               1.73865E-05   1.70986E-03   5.65435E-04   1.79780E-25
 3.65000E+01               1.73865E-05   1.70986E-03   5.65435E-04   1.68790E-26
 3.75000E+01               1.73865E-05   1.70986E-03   5.65435E-04   1.90022E-27
 3.85000E+01               1.73865E-05   1.70986E-03   5.65435E-04   2.41150E-28
 3.95000E+01               1.73865E-05   1.70986E-03   5.65435E-04   3.51071E-29
 4.05000E+01               1.73865E-05   1.70986E-03   5.65435E-04   5.93441E-30
 4.15000E+01               1.73865E-05   1.70986E-03   5.65435E-04   2.37786E-30
 4.25000E+01               1.73865E-05   1.70986E-03   5.65435E-04   1.86230E-30
 4.35000E+01               1.73865E-05   1.70986E-03   5.65435E-04   1.44560E-30
 4.45000E+01               1.73865E-05   1.70986E-03   5.65435E-04   1.21389E-30
 4.55000E+01               1.73865E-05   1.70986E-03   5.65435E-04   1.09565E-30
 4.65000E+01               1.73865E-05   1.70986E-03   5.65435E-04   1.04000E-30
 4.75000E+01               1.73865E-05   1.70986E-03   5.65435E-04   1.01570E-30
 4.85000E+01               1.73865E-05   1.70986E-03   5.65435E-04   1.00579E-30
 4.95000E+01               1.73865E-05   1.70986E-03   5.65435E-04   1.00201E-30
 5.05000E+01               1.73865E-05   1.70986E-03   5.65435E-04   1.00065E-30
 5.15000E+01               1.73865E-05   1.70986E-03   5.65435E-04   1.00020E-30
 5.25000E+01               1.73865E-05   1.70986E-03   5.65435E-04   1.00006E-30
 5.35000E+01               1.73865E-05   1.70986E-03   5.65435E-04   1.00002E-30
 5.45000E+01               1.73865E-05   1.70986E-03   5.65435E-04   1.00000E-30
 5.55000E+01               1.73865E-05   1.70986E-03   5.65435E-04   1.00000E-30
 5.65000E+01               1.73865E-05   1.70986E-03   5.65435E-04   1.00000E-30
 5.75000E+01               1.73865E-05   1.70986E-03   5.65435E-04   1.00000E-30
 5.85000E+01               1.73865E-05   1.70986E-03   5.65435E-04   1.00000E-30
 5.95000E+01               1.73865E-05   1.70986E-03   5.65435E-04   1.00000E-30
 6.05000E+01               1.73865E-05   1.70986E-03   5.65435E-04   1.00000E-30
 6.15000E+01               1.73865E-05   1.70986E-03   5.65435E-04   1.00000E-30
 6.25000E+01               1.73865E-05   1.70986E-03   5.65435E-04   1.00000E-30
 6.35000E+01               1.73865E-05   1.70986E-03   5.65435E-04   1.00000E-30
 6.45000E+01               1.73865E-05   1.70986E-03   5.65435E-04   1.00000E-30
 6.55000E+01               1.73865E-05   1.70986E-03   5.65435E-04   1.00000E-30
 6.65000E+01               1.73865E-05   1.70986E-03   5.65435E-04   1.00000E-30
 6.75000E+01               1.73865E-05   1.70986E-03   5.65435E-04   1.00000E-30
 6.85000E+01               1.73865E-05   1.70986E-03   5.65435E-04   1.00000E-30
 6.95000E+01               1.73865E-05   1.70986E-03   5.65435E-04   1.00000E-30
 7.05000E+01               1.73865E-05   1.70986E-03   5.65435E-04   1.00000E-30
 7.15000E+01               1.73865E-05   1.70986E-03   5.65435E-04   1.00000E-30
 7.25000E+01               1.73865E-05   1.70986E-03   5.65435E-04   1.00000E-30
 7.35000E+01               1.73865E-05   1.70986E-03   5.65435E-04   1.00000E-30
 7.45000E+01               1.73865E-05   1.70986E-03   5.65435E-04   1.00000E-30
 7.55000E+01               1.73865E-05   1.70986E-03   5.65435E-04   1.00000E-30
 7.65000E+01               1.73865E-05   1.70986E-03   5.65435E-04   1.00000E-30
 7.75000E+01               1.73865E-05   1.70986E-03   5.65435E-04   1.00000E-30
 7.85000E+01               1.73865E-05   1.70986E-03   5.65435E-04   1.00000E-30
 7.95000E+01               1.73865E-05   1.70986E-03   5.65435E-04   1.00000E-30
 8.05000E+01               1.73865E-05   1.70986E-03   5.65435E-04   1.00000E-30
 8.15000E+01               1.73865E-05   1.70986E-03   5.65435E-04   1.00000E-30
 8.25000E+01               1.73865E-05   1.70986E-03   5.65435E-04   1.00000E-30
 8.35000E+01               1.73865E-05   1.70986E-03   5.65435E-04   1.00000E-30
 8.45000E+01               1.73865E-05   1.70986E-03   5.65435E-04   1.00000E-30
 8.55000E+01               1.73865E-05   1.70986E-03   5.65435E-04   1.00000E-30
 8.65000E+01               1.73865E-05   1.70986E-03   5.65435E-04   1.00000E-30
 8.75000E+01               1.73865E-05   1.70986E-03   5.65435E-04   1.00000E-30
 8.85000E+01               1.73865E-05   1.70986E-03   5.65435E-04   1.00000E-30
 8.95000E+01               1.73865E-05   1.70986E-03   5.65435E-04   1.00000E-30
 9.05000E+01               1.73865E-05   1.70986E-03   5.65435E-04   1.00000E-30
 9.15000E+01               1.73865E-05   1.70986E-03   5.65435E-04   1.00000E-30
 9.25000E+01               1.73865E-05   1.70986E-03   5.65435E-04   1.00000E-30
 9.35000E+01               1.73865E-05   1.70986E-03   5.65435E-04   1.00000E-30
 9.45000E+01               1.73865E-05   1.70986E-03   5.65435E-04   1.00000E-30
 9.55000E+01               1.73865E-05   1.70986E-03   5.65435E-04   1.00000E-30
 9.65000E+01               1.73865E-05   1.70986E-03   5.65435E-04   1.00000E-30
 9.75000E+01               1.73865E-05   1.70986E-03   5.65435E-04   1.00000E-30
 9.85000E+01               1.73865E-05   1.70986E-03   5.65435E-04   1.00000E-30
 9.95000E+01               1.73865E-05   1.70986E-03   5.65435E-04   1.00000E-30
