# Units: Mol/kgw
 TITLE = " Years"
VARIABLES = "X (meters)", "H+        ", "HCO3-     ", "Ca++      ", "Tracer    ", "
 ZONE F=POINT,I=         100
 5.00000E-01               9.66128E-04   1.00000E-03   1.69361E-05   1.00000E-03
 1.50000E+00               9.66128E-04   1.00000E-03   1.69361E-05   1.00000E-03
 2.50000E+00               9.66128E-04   1.00000E-03   1.69361E-05   1.00000E-03
 3.50000E+00               9.66128E-04   1.00000E-03   1.69361E-05   1.00000E-03
 4.50000E+00               9.66128E-04   1.00000E-03   1.69361E-05   1.00000E-03
 5.50000E+00               9.66128E-04   1.00000E-03   1.69361E-05   1.00000E-03
 6.50000E+00               9.66128E-04   1.00000E-03   1.69361E-05   1.00000E-03
 7.50000E+00               9.66128E-04   1.00000E-03   1.69361E-05   1.00000E-03
 8.50000E+00               9.66128E-04   1.00000E-03   1.69361E-05   1.00000E-03
 9.50000E+00               9.66128E-04   1.00000E-03   1.69361E-05   1.00000E-03
 1.05000E+01               9.66128E-04   1.00000E-03   1.69361E-05   1.00000E-03
 1.15000E+01               9.66128E-04   1.00000E-03   1.69361E-05   1.00000E-03
 1.25000E+01               9.66128E-04   1.00000E-03   1.69361E-05   1.00000E-03
 1.35000E+01               9.66128E-04   1.00000E-03   1.69363E-05   1.00000E-03
 1.45000E+01               9.66123E-04   1.00000E-03   1.69409E-05   1.00000E-03
 1.55000E+01               9.66005E-04   1.00012E-03   1.70585E-05   1.00000E-03
 1.65000E+01               9.63111E-04   1.00302E-03   1.99532E-05   1.00000E-03
 1.75000E+01               9.04410E-04   1.06172E-03   7.86587E-05   1.00000E-03
 1.85000E+01               5.77921E-05   1.90834E-03   9.25335E-04   1.00000E-03
 1.95000E+01               5.25336E-05   1.91366E-03   9.30591E-04   1.00000E-03
 2.05000E+01               5.24852E-05   1.91370E-03   9.30612E-04   1.00000E-03
 2.15000E+01               5.24834E-05   1.91370E-03   9.30598E-04   1.00000E-03
 2.25000E+01               5.24796E-05   1.91368E-03   9.30555E-04   1.00000E-03
 2.35000E+01               5.24727E-05   1.91364E-03   9.30496E-04   1.00000E-03
 2.45000E+01               5.24646E-05   1.91356E-03   9.30451E-04   1.00000E-03
 2.55000E+01               5.24589E-05   1.91348E-03   9.30445E-04   1.00000E-03
 2.65000E+01               5.24579E-05   1.91345E-03   9.30463E-04   1.00000E-03
 2.75000E+01               5.24632E-05   1.91345E-03   9.30543E-04   1.00000E-03
 2.85000E+01               5.24757E-05   1.91352E-03   9.30671E-04   1.00000E-03
 2.95000E+01               5.24957E-05   1.91370E-03   9.30797E-04   9.99999E-04
 3.05000E+01               5.25152E-05   1.91391E-03   9.30877E-04   9.99994E-04
 3.15000E+01               5.25253E-05   1.91406E-03   9.30887E-04   9.99973E-04
 3.25000E+01               5.25252E-05   1.91407E-03   9.30866E-04   9.99881E-04
 3.35000E+01               5.25132E-05   1.91402E-03   9.30717E-04   9.99487E-04
 3.45000E+01               5.24490E-05   1.91369E-03   9.30012E-04   9.97820E-04
 3.55000E+01               5.21672E-05   1.91213E-03   9.27030E-04   9.90877E-04
 3.65000E+01               5.10353E-05   1.90578E-03   9.15330E-04   9.63112E-04
 3.75000E+01               4.81911E-05   1.88968E-03   8.86634E-04   8.87503E-04
 3.85000E+01               4.36169E-05   1.86352E-03   8.40345E-04   7.59629E-04
 3.95000E+01               3.77843E-05   1.82973E-03   7.80512E-04   5.91631E-04
 4.05000E+01               3.15586E-05   1.79319E-03   7.15600E-04   4.08913E-04
 4.15000E+01               2.59094E-05   1.75974E-03   6.55920E-04   2.41962E-04
 4.25000E+01               2.15613E-05   1.73400E-03   6.09685E-04   1.14602E-04
 4.35000E+01               1.88505E-05   1.71812E-03   5.80884E-04   3.75111E-05
 4.45000E+01               1.76535E-05   1.71132E-03   5.68247E-04   6.11358E-06
 4.55000E+01               1.74230E-05   1.71006E-03   5.65820E-04   8.55126E-07
 4.65000E+01               1.73916E-05   1.70989E-03   5.65489E-04   1.18106E-07
 4.75000E+01               1.73872E-05   1.70987E-03   5.65443E-04   1.61396E-08
 4.85000E+01               1.73866E-05   1.70986E-03   5.65436E-04   2.06845E-09
 4.95000E+01               1.73865E-05   1.70986E-03   5.65436E-04   1.67599E-10
 5.05000E+01               1.73865E-05   1.70986E-03   5.65435E-04   2.22291E-16
 5.15000E+01               1.73865E-05   1.70986E-03   5.65435E-04   2.02442E-17
 5.25000E+01               1.73865E-05   1.70986E-03   5.65435E-04   1.00438E-18
 5.35000E+01               1.73865E-05   1.70986E-03   5.65435E-04   6.70274E-20
 5.45000E+01               1.73865E-05   1.70986E-03   5.65435E-04   2.90600E-21
 5.55000E+01               1.73865E-05   1.70986E-03   5.65435E-04   2.04316E-22
 5.65000E+01               1.73865E-05   1.70986E-03   5.65435E-04   2.02163E-23
 5.75000E+01               1.73865E-05   1.70986E-03   5.65435E-04   2.34904E-24
 5.85000E+01               1.73865E-05   1.70986E-03   5.65435E-04   2.88416E-25
 5.95000E+01               1.73865E-05   1.70986E-03   5.65435E-04   4.01345E-26
 6.05000E+01               1.73865E-05   1.70986E-03   5.65435E-04   5.69657E-27
 6.15000E+01               1.73865E-05   1.70986E-03   5.65435E-04   8.51543E-28
 6.25000E+01               1.73865E-05   1.70986E-03   5.65435E-04   1.33814E-28
 6.35000E+01               1.73865E-05   1.70986E-03   5.65435E-04   2.24513E-29
 6.45000E+01               1.73865E-05   1.70986E-03   5.65435E-04   4.10205E-30
 6.55000E+01               1.73865E-05   1.70986E-03   5.65435E-04   2.40330E-30
 6.65000E+01               1.73865E-05   1.70986E-03   5.65435E-04   1.87010E-30
 6.75000E+01               1.73865E-05   1.70986E-03   5.65435E-04   1.53796E-30
 6.85000E+01               1.73865E-05   1.70986E-03   5.65435E-04   1.31299E-30
 6.95000E+01               1.73865E-05   1.70986E-03   5.65435E-04   1.17484E-30
 7.05000E+01               1.73865E-05   1.70986E-03   5.65435E-04   1.09443E-30
 7.15000E+01               1.73865E-05   1.70986E-03   5.65435E-04   1.04938E-30
 7.25000E+01               1.73865E-05   1.70986E-03   5.65435E-04   1.02506E-30
 7.35000E+01               1.73865E-05   1.70986E-03   5.65435E-04   1.01237E-30
 7.45000E+01               1.73865E-05   1.70986E-03   5.65435E-04   1.00594E-30
 7.55000E+01               1.73865E-05   1.70986E-03   5.65435E-04   1.00278E-30
 7.65000E+01               1.73865E-05   1.70986E-03   5.65435E-04   1.00127E-30
 7.75000E+01               1.73865E-05   1.70986E-03   5.65435E-04   1.00056E-30
 7.85000E+01               1.73865E-05   1.70986E-03   5.65435E-04   1.00024E-30
 7.95000E+01               1.73865E-05   1.70986E-03   5.65435E-04   1.00010E-30
 8.05000E+01               1.73865E-05   1.70986E-03   5.65435E-04   1.00004E-30
 8.15000E+01               1.73865E-05   1.70986E-03   5.65435E-04   1.00002E-30
 8.25000E+01               1.73865E-05   1.70986E-03   5.65435E-04   1.00001E-30
 8.35000E+01               1.73865E-05   1.70986E-03   5.65435E-04   1.00000E-30
 8.45000E+01               1.73865E-05   1.70986E-03   5.65435E-04   1.00000E-30
 8.55000E+01               1.73865E-05   1.70986E-03   5.65435E-04   1.00000E-30
 8.65000E+01               1.73865E-05   1.70986E-03   5.65435E-04   1.00000E-30
 8.75000E+01               1.73865E-05   1.70986E-03   5.65435E-04   1.00000E-30
 8.85000E+01               1.73865E-05   1.70986E-03   5.65435E-04   1.00000E-30
 8.95000E+01               1.73865E-05   1.70986E-03   5.65435E-04   1.00000E-30
 9.05000E+01               1.73865E-05   1.70986E-03   5.65435E-04   1.00000E-30
 9.15000E+01               1.73865E-05   1.70986E-03   5.65435E-04   1.00000E-30
 9.25000E+01               1.73865E-05   1.70986E-03   5.65435E-04   1.00000E-30
 9.35000E+01               1.73865E-05   1.70986E-03   5.65435E-04   1.00000E-30
 9.45000E+01               1.73865E-05   1.70986E-03   5.65435E-04   1.00000E-30
 9.55000E+01               1.73865E-05   1.70986E-03   5.65435E-04   1.00000E-30
 9.65000E+01               1.73865E-05   1.70986E-03   5.65435E-04   1.00000E-30
 9.75000E+01               1.73865E-05   1.70986E-03   5.65435E-04   1.00000E-30
 9.85000E+01               1.73865E-05   1.70986E-03   5.65435E-04   1.00000E-30
 9.95000E+01               1.73865E-05   1.70986E-03   5.65435E-04   1.00000E-30
