# Units: Mol/kgw
 TITLE = " Years"
VARIABLES = "X (meters)", "H+        ", "HCO3-     ", "Ca++      ", "Tracer    ", "
 ZONE F=POINT,I=         100
 5.00000E-01               9.66126E-04   1.00000E-03   1.69376E-05   1.00000E-03
 1.50000E+00               9.66086E-04   1.00004E-03   1.69777E-05   1.00000E-03
 2.50000E+00               9.65143E-04   1.00099E-03   1.79265E-05   9.99999E-04
 3.50000E+00               9.44317E-04   1.02193E-03   3.88610E-05   9.99990E-04
 4.50000E+00               1.12476E-04   1.85598E-03   8.72902E-04   9.99915E-04
 5.50000E+00               5.24362E-05   1.91388E-03   9.29272E-04   9.99368E-04
 6.50000E+00               5.21688E-05   1.91242E-03   9.27003E-04   9.95928E-04
 7.50000E+00               5.12386E-05   1.90728E-03   9.17657E-04   9.77097E-04
 8.50000E+00               4.74838E-05   1.88588E-03   8.80257E-04   8.83879E-04
 9.50000E+00               3.95897E-05   1.84036E-03   8.00340E-04   6.49072E-04
 1.05000E+01               2.99961E-05   1.78391E-03   7.00340E-04   3.54012E-04
 1.15000E+01               2.21474E-05   1.73726E-03   6.16699E-04   1.19088E-04
 1.25000E+01               1.82795E-05   1.71484E-03   5.75064E-04   1.92782E-05
 1.35000E+01               1.74897E-05   1.71043E-03   5.66555E-04   2.11538E-06
 1.45000E+01               1.73982E-05   1.70993E-03   5.65562E-04   2.31120E-07
 1.55000E+01               1.73878E-05   1.70987E-03   5.65449E-04   2.37781E-08
 1.65000E+01               1.73866E-05   1.70986E-03   5.65437E-04   2.21400E-09
 1.75000E+01               1.73865E-05   1.70986E-03   5.65436E-04   1.53850E-10
 1.85000E+01               1.73865E-05   1.70986E-03   5.65435E-04   5.09366E-20
 1.95000E+01               1.73865E-05   1.70986E-03   5.65435E-04   8.48289E-21
 2.05000E+01               1.73865E-05   1.70986E-03   5.65435E-04   5.21915E-22
 2.15000E+01               1.73865E-05   1.70986E-03   5.65435E-04   4.06036E-23
 2.25000E+01               1.73865E-05   1.70986E-03   5.65435E-04   4.90755E-24
 2.35000E+01               1.73865E-05   1.70986E-03   5.65435E-04   4.11598E-25
 2.45000E+01               1.73865E-05   1.70986E-03   5.65435E-04   1.22008E-26
 2.55000E+01               1.73865E-05   1.70986E-03   5.65435E-04   1.21687E-27
 2.65000E+01               1.73865E-05   1.70986E-03   5.65435E-04   2.19835E-28
 2.75000E+01               1.73865E-05   1.70986E-03   5.65435E-04   3.36955E-29
 2.85000E+01               1.73865E-05   1.70986E-03   5.65435E-04   7.18219E-30
 2.95000E+01               1.73865E-05   1.70986E-03   5.65435E-04   2.21458E-30
 3.05000E+01               1.73865E-05   1.70986E-03   5.65435E-04   1.55374E-30
 3.15000E+01               1.73865E-05   1.70986E-03   5.65435E-04   1.19930E-30
 3.25000E+01               1.73865E-05   1.70986E-03   5.65435E-04   1.06071E-30
 3.35000E+01               1.73865E-05   1.70986E-03   5.65435E-04   1.01607E-30
 3.45000E+01               1.73865E-05   1.70986E-03   5.65435E-04   1.00372E-30
 3.55000E+01               1.73865E-05   1.70986E-03   5.65435E-04   1.00075E-30
 3.65000E+01               1.73865E-05   1.70986E-03   5.65435E-04   1.00013E-30
 3.75000E+01               1.73865E-05   1.70986E-03   5.65435E-04   1.00002E-30
 3.85000E+01               1.73865E-05   1.70986E-03   5.65435E-04   1.00000E-30
 3.95000E+01               1.73865E-05   1.70986E-03   5.65435E-04   1.00000E-30
 4.05000E+01               1.73865E-05   1.70986E-03   5.65435E-04   1.00000E-30
 4.15000E+01               1.73865E-05   1.70986E-03   5.65435E-04   1.00000E-30
 4.25000E+01               1.73865E-05   1.70986E-03   5.65435E-04   1.00000E-30
 4.35000E+01               1.73865E-05   1.70986E-03   5.65435E-04   1.00000E-30
 4.45000E+01               1.73865E-05   1.70986E-03   5.65435E-04   1.00000E-30
 4.55000E+01               1.73865E-05   1.70986E-03   5.65435E-04   1.00000E-30
 4.65000E+01               1.73865E-05   1.70986E-03   5.65435E-04   1.00000E-30
 4.75000E+01               1.73865E-05   1.70986E-03   5.65435E-04   1.00000E-30
 4.85000E+01               1.73865E-05   1.70986E-03   5.65435E-04   1.00000E-30
 4.95000E+01               1.73865E-05   1.70986E-03   5.65435E-04   1.00000E-30
 5.05000E+01               1.73865E-05   1.70986E-03   5.65435E-04   1.00000E-30
 5.15000E+01               1.73865E-05   1.70986E-03   5.65435E-04   1.00000E-30
 5.25000E+01               1.73865E-05   1.70986E-03   5.65435E-04   1.00000E-30
 5.35000E+01               1.73865E-05   1.70986E-03   5.65435E-04   1.00000E-30
 5.45000E+01               1.73865E-05   1.70986E-03   5.65435E-04   1.00000E-30
 5.55000E+01               1.73865E-05   1.70986E-03   5.65435E-04   1.00000E-30
 5.65000E+01               1.73865E-05   1.70986E-03   5.65435E-04   1.00000E-30
 5.75000E+01               1.73865E-05   1.70986E-03   5.65435E-04   1.00000E-30
 5.85000E+01               1.73865E-05   1.70986E-03   5.65435E-04   1.00000E-30
 5.95000E+01               1.73865E-05   1.70986E-03   5.65435E-04   1.00000E-30
 6.05000E+01               1.73865E-05   1.70986E-03   5.65435E-04   1.00000E-30
 6.15000E+01               1.73865E-05   1.70986E-03   5.65435E-04   1.00000E-30
 6.25000E+01               1.73865E-05   1.70986E-03   5.65435E-04   1.00000E-30
 6.35000E+01               1.73865E-05   1.70986E-03   5.65435E-04   1.00000E-30
 6.45000E+01               1.73865E-05   1.70986E-03   5.65435E-04   1.00000E-30
 6.55000E+01               1.73865E-05   1.70986E-03   5.65435E-04   1.00000E-30
 6.65000E+01               1.73865E-05   1.70986E-03   5.65435E-04   1.00000E-30
 6.75000E+01               1.73865E-05   1.70986E-03   5.65435E-04   1.00000E-30
 6.85000E+01               1.73865E-05   1.70986E-03   5.65435E-04   1.00000E-30
 6.95000E+01               1.73865E-05   1.70986E-03   5.65435E-04   1.00000E-30
 7.05000E+01               1.73865E-05   1.70986E-03   5.65435E-04   1.00000E-30
 7.15000E+01               1.73865E-05   1.70986E-03   5.65435E-04   1.00000E-30
 7.25000E+01               1.73865E-05   1.70986E-03   5.65435E-04   1.00000E-30
 7.35000E+01               1.73865E-05   1.70986E-03   5.65435E-04   1.00000E-30
 7.45000E+01               1.73865E-05   1.70986E-03   5.65435E-04   1.00000E-30
 7.55000E+01               1.73865E-05   1.70986E-03   5.65435E-04   1.00000E-30
 7.65000E+01               1.73865E-05   1.70986E-03   5.65435E-04   1.00000E-30
 7.75000E+01               1.73865E-05   1.70986E-03   5.65435E-04   1.00000E-30
 7.85000E+01               1.73865E-05   1.70986E-03   5.65435E-04   1.00000E-30
 7.95000E+01               1.73865E-05   1.70986E-03   5.65435E-04   1.00000E-30
 8.05000E+01               1.73865E-05   1.70986E-03   5.65435E-04   1.00000E-30
 8.15000E+01               1.73865E-05   1.70986E-03   5.65435E-04   1.00000E-30
 8.25000E+01               1.73865E-05   1.70986E-03   5.65435E-04   1.00000E-30
 8.35000E+01               1.73865E-05   1.70986E-03   5.65435E-04   1.00000E-30
 8.45000E+01               1.73865E-05   1.70986E-03   5.65435E-04   1.00000E-30
 8.55000E+01               1.73865E-05   1.70986E-03   5.65435E-04   1.00000E-30
 8.65000E+01               1.73865E-05   1.70986E-03   5.65435E-04   1.00000E-30
 8.75000E+01               1.73865E-05   1.70986E-03   5.65435E-04   1.00000E-30
 8.85000E+01               1.73865E-05   1.70986E-03   5.65435E-04   1.00000E-30
 8.95000E+01               1.73865E-05   1.70986E-03   5.65435E-04   1.00000E-30
 9.05000E+01               1.73865E-05   1.70986E-03   5.65435E-04   1.00000E-30
 9.15000E+01               1.73865E-05   1.70986E-03   5.65435E-04   1.00000E-30
 9.25000E+01               1.73865E-05   1.70986E-03   5.65435E-04   1.00000E-30
 9.35000E+01               1.73865E-05   1.70986E-03   5.65435E-04   1.00000E-30
 9.45000E+01               1.73865E-05   1.70986E-03   5.65435E-04   1.00000E-30
 9.55000E+01               1.73865E-05   1.70986E-03   5.65435E-04   1.00000E-30
 9.65000E+01               1.73865E-05   1.70986E-03   5.65435E-04   1.00000E-30
 9.75000E+01               1.73865E-05   1.70986E-03   5.65435E-04   1.00000E-30
 9.85000E+01               1.73865E-05   1.70986E-03   5.65435E-04   1.00000E-30
 9.95000E+01               1.73865E-05   1.70986E-03   5.65435E-04   1.00000E-30
