# Units: Mol/kgw
 TITLE = " Years"
VARIABLES = "X (meters)", "H+        ", "HCO3-     ", "Ca++      ", "Tracer    ", "
 ZONE F=POINT,I=         100
 5.00000E-01               9.66128E-04   1.00000E-03   1.69361E-05   1.00000E-03
 1.50000E+00               9.66128E-04   1.00000E-03   1.69361E-05   1.00000E-03
 2.50000E+00               9.66128E-04   1.00000E-03   1.69361E-05   1.00000E-03
 3.50000E+00               9.66128E-04   1.00000E-03   1.69361E-05   1.00000E-03
 4.50000E+00               9.66128E-04   1.00000E-03   1.69361E-05   1.00000E-03
 5.50000E+00               9.66128E-04   1.00000E-03   1.69361E-05   1.00000E-03
 6.50000E+00               9.66128E-04   1.00000E-03   1.69361E-05   1.00000E-03
 7.50000E+00               9.66128E-04   1.00000E-03   1.69361E-05   1.00000E-03
 8.50000E+00               9.66128E-04   1.00000E-03   1.69361E-05   1.00000E-03
 9.50000E+00               9.66127E-04   1.00000E-03   1.69372E-05   1.00000E-03
 1.05000E+01               9.66101E-04   1.00003E-03   1.69630E-05   1.00000E-03
 1.15000E+01               9.65487E-04   1.00064E-03   1.75774E-05   1.00000E-03
 1.25000E+01               9.50134E-04   1.01600E-03   3.29333E-05   1.00000E-03
 1.35000E+01               3.74178E-04   1.59216E-03   6.09005E-04   1.00000E-03
 1.45000E+01               5.25496E-05   1.91356E-03   9.30348E-04   1.00000E-03
 1.55000E+01               5.24546E-05   1.91346E-03   9.30376E-04   1.00000E-03
 1.65000E+01               5.24516E-05   1.91338E-03   9.30438E-04   1.00000E-03
 1.75000E+01               5.24579E-05   1.91338E-03   9.30537E-04   1.00000E-03
 1.85000E+01               5.24722E-05   1.91347E-03   9.30666E-04   1.00000E-03
 1.95000E+01               5.24950E-05   1.91368E-03   9.30803E-04   1.00000E-03
 2.05000E+01               5.25181E-05   1.91393E-03   9.30907E-04   9.99998E-04
 2.15000E+01               5.25328E-05   1.91412E-03   9.30935E-04   9.99988E-04
 2.25000E+01               5.25358E-05   1.91417E-03   9.30928E-04   9.99943E-04
 2.35000E+01               5.25304E-05   1.91416E-03   9.30850E-04   9.99737E-04
 2.45000E+01               5.24949E-05   1.91398E-03   9.30439E-04   9.98822E-04
 2.55000E+01               5.23281E-05   1.91305E-03   9.28624E-04   9.94859E-04
 2.65000E+01               5.15947E-05   1.90886E-03   9.20820E-04   9.77864E-04
 2.75000E+01               4.91159E-05   1.89471E-03   8.95547E-04   9.13866E-04
 2.85000E+01               4.44817E-05   1.86811E-03   8.48583E-04   7.84764E-04
 2.95000E+01               3.81747E-05   1.83154E-03   7.83955E-04   6.02015E-04
 3.05000E+01               3.13135E-05   1.79128E-03   7.12494E-04   3.99255E-04
 3.15000E+01               2.51790E-05   1.75505E-03   6.47776E-04   2.17575E-04
 3.25000E+01               2.07084E-05   1.72875E-03   6.00402E-04   8.75392E-05
 3.35000E+01               1.82400E-05   1.71456E-03   5.74371E-04   2.02441E-05
 3.45000E+01               1.75187E-05   1.71058E-03   5.66818E-04   3.04513E-06
 3.55000E+01               1.74051E-05   1.70996E-03   5.65630E-04   4.20801E-07
 3.65000E+01               1.73890E-05   1.70988E-03   5.65462E-04   5.65693E-08
 3.75000E+01               1.73869E-05   1.70986E-03   5.65439E-04   7.25198E-09
 3.85000E+01               1.73866E-05   1.70986E-03   5.65436E-04   7.48754E-10
 3.95000E+01               1.73865E-05   1.70986E-03   5.65435E-04   8.92577E-12
 4.05000E+01               1.73865E-05   1.70986E-03   5.65435E-04   3.51612E-18
 4.15000E+01               1.73865E-05   1.70986E-03   5.65435E-04   2.43926E-19
 4.25000E+01               1.73865E-05   1.70986E-03   5.65435E-04   1.02304E-20
 4.35000E+01               1.73865E-05   1.70986E-03   5.65435E-04   4.15679E-22
 4.45000E+01               1.73865E-05   1.70986E-03   5.65435E-04   3.41958E-23
 4.55000E+01               1.73865E-05   1.70986E-03   5.65435E-04   3.35218E-24
 4.65000E+01               1.73865E-05   1.70986E-03   5.65435E-04   3.64753E-25
 4.75000E+01               1.73865E-05   1.70986E-03   5.65435E-04   4.94793E-26
 4.85000E+01               1.73865E-05   1.70986E-03   5.65435E-04   7.57283E-27
 4.95000E+01               1.73865E-05   1.70986E-03   5.65435E-04   1.17791E-27
 5.05000E+01               1.73865E-05   1.70986E-03   5.65435E-04   2.01194E-28
 5.15000E+01               1.73865E-05   1.70986E-03   5.65435E-04   3.46736E-29
 5.25000E+01               1.73865E-05   1.70986E-03   5.65435E-04   6.33045E-30
 5.35000E+01               1.73865E-05   1.70986E-03   5.65435E-04   2.42380E-30
 5.45000E+01               1.73865E-05   1.70986E-03   5.65435E-04   1.90971E-30
 5.55000E+01               1.73865E-05   1.70986E-03   5.65435E-04   1.51065E-30
 5.65000E+01               1.73865E-05   1.70986E-03   5.65435E-04   1.27879E-30
 5.75000E+01               1.73865E-05   1.70986E-03   5.65435E-04   1.14516E-30
 5.85000E+01               1.73865E-05   1.70986E-03   5.65435E-04   1.07247E-30
 5.95000E+01               1.73865E-05   1.70986E-03   5.65435E-04   1.03469E-30
 6.05000E+01               1.73865E-05   1.70986E-03   5.65435E-04   1.01592E-30
 6.15000E+01               1.73865E-05   1.70986E-03   5.65435E-04   1.00701E-30
 6.25000E+01               1.73865E-05   1.70986E-03   5.65435E-04   1.00297E-30
 6.35000E+01               1.73865E-05   1.70986E-03   5.65435E-04   1.00121E-30
 6.45000E+01               1.73865E-05   1.70986E-03   5.65435E-04   1.00047E-30
 6.55000E+01               1.73865E-05   1.70986E-03   5.65435E-04   1.00018E-30
 6.65000E+01               1.73865E-05   1.70986E-03   5.65435E-04   1.00006E-30
 6.75000E+01               1.73865E-05   1.70986E-03   5.65435E-04   1.00002E-30
 6.85000E+01               1.73865E-05   1.70986E-03   5.65435E-04   1.00001E-30
 6.95000E+01               1.73865E-05   1.70986E-03   5.65435E-04   1.00000E-30
 7.05000E+01               1.73865E-05   1.70986E-03   5.65435E-04   1.00000E-30
 7.15000E+01               1.73865E-05   1.70986E-03   5.65435E-04   1.00000E-30
 7.25000E+01               1.73865E-05   1.70986E-03   5.65435E-04   1.00000E-30
 7.35000E+01               1.73865E-05   1.70986E-03   5.65435E-04   1.00000E-30
 7.45000E+01               1.73865E-05   1.70986E-03   5.65435E-04   1.00000E-30
 7.55000E+01               1.73865E-05   1.70986E-03   5.65435E-04   1.00000E-30
 7.65000E+01               1.73865E-05   1.70986E-03   5.65435E-04   1.00000E-30
 7.75000E+01               1.73865E-05   1.70986E-03   5.65435E-04   1.00000E-30
 7.85000E+01               1.73865E-05   1.70986E-03   5.65435E-04   1.00000E-30
 7.95000E+01               1.73865E-05   1.70986E-03   5.65435E-04   1.00000E-30
 8.05000E+01               1.73865E-05   1.70986E-03   5.65435E-04   1.00000E-30
 8.15000E+01               1.73865E-05   1.70986E-03   5.65435E-04   1.00000E-30
 8.25000E+01               1.73865E-05   1.70986E-03   5.65435E-04   1.00000E-30
 8.35000E+01               1.73865E-05   1.70986E-03   5.65435E-04   1.00000E-30
 8.45000E+01               1.73865E-05   1.70986E-03   5.65435E-04   1.00000E-30
 8.55000E+01               1.73865E-05   1.70986E-03   5.65435E-04   1.00000E-30
 8.65000E+01               1.73865E-05   1.70986E-03   5.65435E-04   1.00000E-30
 8.75000E+01               1.73865E-05   1.70986E-03   5.65435E-04   1.00000E-30
 8.85000E+01               1.73865E-05   1.70986E-03   5.65435E-04   1.00000E-30
 8.95000E+01               1.73865E-05   1.70986E-03   5.65435E-04   1.00000E-30
 9.05000E+01               1.73865E-05   1.70986E-03   5.65435E-04   1.00000E-30
 9.15000E+01               1.73865E-05   1.70986E-03   5.65435E-04   1.00000E-30
 9.25000E+01               1.73865E-05   1.70986E-03   5.65435E-04   1.00000E-30
 9.35000E+01               1.73865E-05   1.70986E-03   5.65435E-04   1.00000E-30
 9.45000E+01               1.73865E-05   1.70986E-03   5.65435E-04   1.00000E-30
 9.55000E+01               1.73865E-05   1.70986E-03   5.65435E-04   1.00000E-30
 9.65000E+01               1.73865E-05   1.70986E-03   5.65435E-04   1.00000E-30
 9.75000E+01               1.73865E-05   1.70986E-03   5.65435E-04   1.00000E-30
 9.85000E+01               1.73865E-05   1.70986E-03   5.65435E-04   1.00000E-30
 9.95000E+01               1.73865E-05   1.70986E-03   5.65435E-04   1.00000E-30
