# Units: Mol/kgw
 TITLE = " Years"
VARIABLES = "X (meters)", "H+        ", "HCO3-     ", "Ca++      ", "Tracer    ", "
 ZONE F=POINT,I=         100
 5.00000E-01               9.66128E-04   1.00000E-03   1.69361E-05   1.00000E-03
 1.50000E+00               9.66128E-04   1.00000E-03   1.69361E-05   1.00000E-03
 2.50000E+00               9.66128E-04   1.00000E-03   1.69361E-05   1.00000E-03
 3.50000E+00               9.66128E-04   1.00000E-03   1.69361E-05   1.00000E-03
 4.50000E+00               9.66128E-04   1.00000E-03   1.69361E-05   1.00000E-03
 5.50000E+00               9.66128E-04   1.00000E-03   1.69361E-05   1.00000E-03
 6.50000E+00               9.66128E-04   1.00000E-03   1.69361E-05   1.00000E-03
 7.50000E+00               9.66128E-04   1.00000E-03   1.69361E-05   1.00000E-03
 8.50000E+00               9.66128E-04   1.00000E-03   1.69361E-05   1.00000E-03
 9.50000E+00               9.66128E-04   1.00000E-03   1.69361E-05   1.00000E-03
 1.05000E+01               9.66128E-04   1.00000E-03   1.69361E-05   1.00000E-03
 1.15000E+01               9.66128E-04   1.00000E-03   1.69361E-05   1.00000E-03
 1.25000E+01               9.66128E-04   1.00000E-03   1.69361E-05   1.00000E-03
 1.35000E+01               9.66128E-04   1.00000E-03   1.69361E-05   1.00000E-03
 1.45000E+01               9.66128E-04   1.00000E-03   1.69361E-05   1.00000E-03
 1.55000E+01               9.66128E-04   1.00000E-03   1.69361E-05   1.00000E-03
 1.65000E+01               9.66128E-04   1.00000E-03   1.69361E-05   1.00000E-03
 1.75000E+01               9.66128E-04   1.00000E-03   1.69361E-05   1.00000E-03
 1.85000E+01               9.66127E-04   1.00000E-03   1.69368E-05   1.00000E-03
 1.95000E+01               9.66111E-04   1.00002E-03   1.69532E-05   1.00000E-03
 2.05000E+01               9.65705E-04   1.00042E-03   1.73594E-05   1.00000E-03
 2.15000E+01               9.54716E-04   1.01141E-03   2.83472E-05   1.00000E-03
 2.25000E+01               5.88600E-04   1.37755E-03   3.94458E-04   1.00000E-03
 2.35000E+01               5.36775E-05   1.91242E-03   9.29351E-04   1.00000E-03
 2.45000E+01               5.24838E-05   1.91359E-03   9.30567E-04   1.00000E-03
 2.55000E+01               5.24791E-05   1.91363E-03   9.30602E-04   1.00000E-03
 2.65000E+01               5.24817E-05   1.91366E-03   9.30615E-04   1.00000E-03
 2.75000E+01               5.24836E-05   1.91368E-03   9.30621E-04   1.00000E-03
 2.85000E+01               5.24845E-05   1.91370E-03   9.30622E-04   1.00000E-03
 2.95000E+01               5.24847E-05   1.91370E-03   9.30621E-04   1.00000E-03
 3.05000E+01               5.24843E-05   1.91370E-03   9.30613E-04   1.00000E-03
 3.15000E+01               5.24823E-05   1.91370E-03   9.30587E-04   1.00000E-03
 3.25000E+01               5.24780E-05   1.91367E-03   9.30543E-04   1.00000E-03
 3.35000E+01               5.24716E-05   1.91362E-03   9.30497E-04   1.00000E-03
 3.45000E+01               5.24655E-05   1.91355E-03   9.30473E-04   1.00000E-03
 3.55000E+01               5.24619E-05   1.91350E-03   9.30472E-04   1.00000E-03
 3.65000E+01               5.24621E-05   1.91349E-03   9.30489E-04   1.00000E-03
 3.75000E+01               5.24671E-05   1.91349E-03   9.30559E-04   1.00000E-03
 3.85000E+01               5.24790E-05   1.91356E-03   9.30674E-04   9.99999E-04
 3.95000E+01               5.24965E-05   1.91372E-03   9.30784E-04   9.99997E-04
 4.05000E+01               5.25113E-05   1.91389E-03   9.30837E-04   9.99989E-04
 4.15000E+01               5.25167E-05   1.91397E-03   9.30837E-04   9.99952E-04
 4.25000E+01               5.25140E-05   1.91397E-03   9.30796E-04   9.99798E-04
 4.35000E+01               5.24931E-05   1.91388E-03   9.30554E-04   9.99157E-04
 4.45000E+01               5.23907E-05   1.91335E-03   9.29463E-04   9.96527E-04
 4.55000E+01               5.19430E-05   1.91091E-03   9.24803E-04   9.85512E-04
 4.65000E+01               5.04268E-05   1.90250E-03   9.09452E-04   9.46911E-04
 4.75000E+01               4.74160E-05   1.88552E-03   8.79259E-04   8.65474E-04
 4.85000E+01               4.29648E-05   1.86012E-03   8.34230E-04   7.41105E-04
 4.95000E+01               3.74987E-05   1.82848E-03   7.78116E-04   5.84371E-04
 5.05000E+01               3.17342E-05   1.79464E-03   7.17967E-04   4.15957E-04
 5.15000E+01               2.64458E-05   1.76327E-03   6.62037E-04   2.59987E-04
 5.25000E+01               2.22397E-05   1.73826E-03   6.17203E-04   1.36220E-04
 5.35000E+01               1.94016E-05   1.72147E-03   5.86886E-04   5.39983E-05
 5.45000E+01               1.79026E-05   1.71274E-03   5.70914E-04   1.28026E-05
 5.55000E+01               1.74654E-05   1.71030E-03   5.66275E-04   1.91693E-06
 5.65000E+01               1.73982E-05   1.70993E-03   5.65559E-04   2.79716E-07
 5.75000E+01               1.73882E-05   1.70987E-03   5.65453E-04   3.93344E-08
 5.85000E+01               1.73868E-05   1.70986E-03   5.65438E-04   5.31853E-09
 5.95000E+01               1.73866E-05   1.70986E-03   5.65436E-04   6.43603E-10
 6.05000E+01               1.73865E-05   1.70986E-03   5.65435E-04   2.95127E-15
 6.15000E+01               1.73865E-05   1.70986E-03   5.65435E-04   1.52427E-16
 6.25000E+01               1.73865E-05   1.70986E-03   5.65435E-04   8.18432E-18
 6.35000E+01               1.73865E-05   1.70986E-03   5.65435E-04   4.20739E-19
 6.45000E+01               1.73865E-05   1.70986E-03   5.65435E-04   3.73587E-20
 6.55000E+01               1.73865E-05   1.70986E-03   5.65435E-04   3.99324E-21
 6.65000E+01               1.73865E-05   1.70986E-03   5.65435E-04   3.42748E-22
 6.75000E+01               1.73865E-05   1.70986E-03   5.65435E-04   4.14920E-23
 6.85000E+01               1.73865E-05   1.70986E-03   5.65435E-04   5.47871E-24
 6.95000E+01               1.73865E-05   1.70986E-03   5.65435E-04   7.83308E-25
 7.05000E+01               1.73865E-05   1.70986E-03   5.65435E-04   1.15996E-25
 7.15000E+01               1.73865E-05   1.70986E-03   5.65435E-04   1.73384E-26
 7.25000E+01               1.73865E-05   1.70986E-03   5.65435E-04   2.63285E-27
 7.35000E+01               1.73865E-05   1.70986E-03   5.65435E-04   4.24613E-28
 7.45000E+01               1.73865E-05   1.70986E-03   5.65435E-04   7.28936E-29
 7.55000E+01               1.73865E-05   1.70986E-03   5.65435E-04   1.54230E-29
 7.65000E+01               1.73865E-05   1.70986E-03   5.65435E-04   3.53125E-30
 7.75000E+01               1.73865E-05   1.70986E-03   5.65435E-04   2.41544E-30
 7.85000E+01               1.73865E-05   1.70986E-03   5.65435E-04   1.89572E-30
 7.95000E+01               1.73865E-05   1.70986E-03   5.65435E-04   1.55099E-30
 8.05000E+01               1.73865E-05   1.70986E-03   5.65435E-04   1.32382E-30
 8.15000E+01               1.73865E-05   1.70986E-03   5.65435E-04   1.18440E-30
 8.25000E+01               1.73865E-05   1.70986E-03   5.65435E-04   1.10246E-30
 8.35000E+01               1.73865E-05   1.70986E-03   5.65435E-04   1.05575E-30
 8.45000E+01               1.73865E-05   1.70986E-03   5.65435E-04   1.02976E-30
 8.55000E+01               1.73865E-05   1.70986E-03   5.65435E-04   1.01558E-30
 8.65000E+01               1.73865E-05   1.70986E-03   5.65435E-04   1.00800E-30
 8.75000E+01               1.73865E-05   1.70986E-03   5.65435E-04   1.00403E-30
 8.85000E+01               1.73865E-05   1.70986E-03   5.65435E-04   1.00199E-30
 8.95000E+01               1.73865E-05   1.70986E-03   5.65435E-04   1.00096E-30
 9.05000E+01               1.73865E-05   1.70986E-03   5.65435E-04   1.00045E-30
 9.15000E+01               1.73865E-05   1.70986E-03   5.65435E-04   1.00021E-30
 9.25000E+01               1.73865E-05   1.70986E-03   5.65435E-04   1.00009E-30
 9.35000E+01               1.73865E-05   1.70986E-03   5.65435E-04   1.00004E-30
 9.45000E+01               1.73865E-05   1.70986E-03   5.65435E-04   1.00002E-30
 9.55000E+01               1.73865E-05   1.70986E-03   5.65435E-04   1.00001E-30
 9.65000E+01               1.73865E-05   1.70986E-03   5.65435E-04   1.00000E-30
 9.75000E+01               1.73865E-05   1.70986E-03   5.65435E-04   1.00000E-30
 9.85000E+01               1.73865E-05   1.70986E-03   5.65435E-04   1.00000E-30
 9.95000E+01               1.73865E-05   1.70986E-03   5.65435E-04   1.00000E-30
