 TITLE = " Years"
 VARIABLES = "X (meters)", "pH "
 ZONE F=POINT,I=         100
 5.00000E-01               5.02829E+00
 1.50000E+00               5.16869E+00
 2.50000E+00               5.52879E+00
 3.50000E+00               6.07013E+00
 4.50000E+00               7.04120E+00
 5.50000E+00               7.77442E+00
 6.50000E+00               7.79611E+00
 7.50000E+00               7.81505E+00
 8.50000E+00               7.83693E+00
 9.50000E+00               7.86052E+00
 1.05000E+01               7.88436E+00
 1.15000E+01               7.90710E+00
 1.25000E+01               7.92767E+00
 1.35000E+01               7.94536E+00
 1.45000E+01               7.95989E+00
 1.55000E+01               7.97135E+00
 1.65000E+01               7.98004E+00
 1.75000E+01               7.98642E+00
 1.85000E+01               7.99095E+00
 1.95000E+01               7.99409E+00
 2.05000E+01               7.99620E+00
 2.15000E+01               7.99760E+00
 2.25000E+01               7.99851E+00
 2.35000E+01               7.99909E+00
 2.45000E+01               7.99945E+00
 2.55000E+01               7.99967E+00
 2.65000E+01               7.99980E+00
 2.75000E+01               7.99989E+00
 2.85000E+01               7.99993E+00
 2.95000E+01               7.99996E+00
 3.05000E+01               7.99998E+00
 3.15000E+01               7.99999E+00
 3.25000E+01               7.99999E+00
 3.35000E+01               8.00000E+00
 3.45000E+01               8.00000E+00
 3.55000E+01               8.00000E+00
 3.65000E+01               8.00000E+00
 3.75000E+01               8.00000E+00
 3.85000E+01               8.00000E+00
 3.95000E+01               8.00000E+00
 4.05000E+01               8.00000E+00
 4.15000E+01               8.00000E+00
 4.25000E+01               8.00000E+00
 4.35000E+01               8.00000E+00
 4.45000E+01               8.00000E+00
 4.55000E+01               8.00000E+00
 4.65000E+01               8.00000E+00
 4.75000E+01               8.00000E+00
 4.85000E+01               8.00000E+00
 4.95000E+01               8.00000E+00
 5.05000E+01               8.00000E+00
 5.15000E+01               8.00000E+00
 5.25000E+01               8.00000E+00
 5.35000E+01               8.00000E+00
 5.45000E+01               8.00000E+00
 5.55000E+01               8.00000E+00
 5.65000E+01               8.00000E+00
 5.75000E+01               8.00000E+00
 5.85000E+01               8.00000E+00
 5.95000E+01               8.00000E+00
 6.05000E+01               8.00000E+00
 6.15000E+01               8.00000E+00
 6.25000E+01               8.00000E+00
 6.35000E+01               8.00000E+00
 6.45000E+01               8.00000E+00
 6.55000E+01               8.00000E+00
 6.65000E+01               8.00000E+00
 6.75000E+01               8.00000E+00
 6.85000E+01               8.00000E+00
 6.95000E+01               8.00000E+00
 7.05000E+01               8.00000E+00
 7.15000E+01               8.00000E+00
 7.25000E+01               8.00000E+00
 7.35000E+01               8.00000E+00
 7.45000E+01               8.00000E+00
 7.55000E+01               8.00000E+00
 7.65000E+01               8.00000E+00
 7.75000E+01               8.00000E+00
 7.85000E+01               8.00000E+00
 7.95000E+01               8.00000E+00
 8.05000E+01               8.00000E+00
 8.15000E+01               8.00000E+00
 8.25000E+01               8.00000E+00
 8.35000E+01               8.00000E+00
 8.45000E+01               8.00000E+00
 8.55000E+01               8.00000E+00
 8.65000E+01               8.00000E+00
 8.75000E+01               8.00000E+00
 8.85000E+01               8.00000E+00
 8.95000E+01               8.00000E+00
 9.05000E+01               8.00000E+00
 9.15000E+01               8.00000E+00
 9.25000E+01               8.00000E+00
 9.35000E+01               8.00000E+00
 9.45000E+01               8.00000E+00
 9.55000E+01               8.00000E+00
 9.65000E+01               8.00000E+00
 9.75000E+01               8.00000E+00
 9.85000E+01               8.00000E+00
 9.95000E+01               8.00000E+00
