 TITLE = " Years"
 VARIABLES = "X (meters)", "pH "
 ZONE F=POINT,I=         100
 5.00000E-01               5.00005E+00
 1.50000E+00               5.00039E+00
 2.50000E+00               5.00222E+00
 3.50000E+00               5.01011E+00
 4.50000E+00               5.03970E+00
 5.50000E+00               5.13478E+00
 6.50000E+00               5.37128E+00
 7.50000E+00               5.77914E+00
 8.50000E+00               6.36681E+00
 9.50000E+00               7.72355E+00
 1.05000E+01               7.75989E+00
 1.15000E+01               7.76451E+00
 1.25000E+01               7.77061E+00
 1.35000E+01               7.77861E+00
 1.45000E+01               7.78862E+00
 1.55000E+01               7.80066E+00
 1.65000E+01               7.81458E+00
 1.75000E+01               7.83015E+00
 1.85000E+01               7.84700E+00
 1.95000E+01               7.86468E+00
 2.05000E+01               7.88269E+00
 2.15000E+01               7.90054E+00
 2.25000E+01               7.91773E+00
 2.35000E+01               7.93385E+00
 2.45000E+01               7.94858E+00
 2.55000E+01               7.96170E+00
 2.65000E+01               7.97310E+00
 2.75000E+01               7.98278E+00
 2.85000E+01               7.99081E+00
 2.95000E+01               7.99735E+00
 3.05000E+01               8.00256E+00
 3.15000E+01               8.00664E+00
 3.25000E+01               8.00978E+00
 3.35000E+01               8.01216E+00
 3.45000E+01               8.01393E+00
 3.55000E+01               8.01524E+00
 3.65000E+01               8.01618E+00
 3.75000E+01               8.01686E+00
 3.85000E+01               8.01734E+00
 3.95000E+01               8.01768E+00
 4.05000E+01               8.01791E+00
 4.15000E+01               8.01807E+00
 4.25000E+01               8.01818E+00
 4.35000E+01               8.01826E+00
 4.45000E+01               8.01831E+00
 4.55000E+01               8.01834E+00
 4.65000E+01               8.01836E+00
 4.75000E+01               8.01837E+00
 4.85000E+01               8.01838E+00
 4.95000E+01               8.01839E+00
 5.05000E+01               8.01839E+00
 5.15000E+01               8.01840E+00
 5.25000E+01               8.01840E+00
 5.35000E+01               8.01840E+00
 5.45000E+01               8.01840E+00
 5.55000E+01               8.01840E+00
 5.65000E+01               8.01840E+00
 5.75000E+01               8.01840E+00
 5.85000E+01               8.01840E+00
 5.95000E+01               8.01840E+00
 6.05000E+01               8.01840E+00
 6.15000E+01               8.01840E+00
 6.25000E+01               8.01840E+00
 6.35000E+01               8.01840E+00
 6.45000E+01               8.01840E+00
 6.55000E+01               8.01840E+00
 6.65000E+01               8.01840E+00
 6.75000E+01               8.01840E+00
 6.85000E+01               8.01840E+00
 6.95000E+01               8.01840E+00
 7.05000E+01               8.01840E+00
 7.15000E+01               8.01840E+00
 7.25000E+01               8.01840E+00
 7.35000E+01               8.01840E+00
 7.45000E+01               8.01840E+00
 7.55000E+01               8.01840E+00
 7.65000E+01               8.01840E+00
 7.75000E+01               8.01840E+00
 7.85000E+01               8.01840E+00
 7.95000E+01               8.01840E+00
 8.05000E+01               8.01840E+00
 8.15000E+01               8.01840E+00
 8.25000E+01               8.01840E+00
 8.35000E+01               8.01840E+00
 8.45000E+01               8.01840E+00
 8.55000E+01               8.01840E+00
 8.65000E+01               8.01840E+00
 8.75000E+01               8.01840E+00
 8.85000E+01               8.01840E+00
 8.95000E+01               8.01840E+00
 9.05000E+01               8.01840E+00
 9.15000E+01               8.01840E+00
 9.25000E+01               8.01840E+00
 9.35000E+01               8.01840E+00
 9.45000E+01               8.01840E+00
 9.55000E+01               8.01840E+00
 9.65000E+01               8.01840E+00
 9.75000E+01               8.01840E+00
 9.85000E+01               8.01840E+00
 9.95000E+01               8.01840E+00
