 TITLE = " Years"
 VARIABLES = "X (meters)", "pH "
 ZONE F=POINT,I=         100
 5.00000E-01               5.00000E+00
 1.50000E+00               5.00000E+00
 2.50000E+00               5.00000E+00
 3.50000E+00               5.00002E+00
 4.50000E+00               5.00010E+00
 5.50000E+00               5.00043E+00
 6.50000E+00               5.00168E+00
 7.50000E+00               5.00614E+00
 8.50000E+00               5.02160E+00
 9.50000E+00               5.07278E+00
 1.05000E+01               5.22123E+00
 1.15000E+01               5.53423E+00
 1.25000E+01               6.01539E+00
 1.35000E+01               6.82894E+00
 1.45000E+01               7.74783E+00
 1.55000E+01               7.75934E+00
 1.65000E+01               7.76067E+00
 1.75000E+01               7.76250E+00
 1.85000E+01               7.76503E+00
 1.95000E+01               7.76841E+00
 2.05000E+01               7.77278E+00
 2.15000E+01               7.77825E+00
 2.25000E+01               7.78492E+00
 2.35000E+01               7.79282E+00
 2.45000E+01               7.80196E+00
 2.55000E+01               7.81226E+00
 2.65000E+01               7.82362E+00
 2.75000E+01               7.83589E+00
 2.85000E+01               7.84884E+00
 2.95000E+01               7.86225E+00
 3.05000E+01               7.87585E+00
 3.15000E+01               7.88938E+00
 3.25000E+01               7.90259E+00
 3.35000E+01               7.91524E+00
 3.45000E+01               7.92713E+00
 3.55000E+01               7.93811E+00
 3.65000E+01               7.94806E+00
 3.75000E+01               7.95693E+00
 3.85000E+01               7.96470E+00
 3.95000E+01               7.97141E+00
 4.05000E+01               7.97710E+00
 4.15000E+01               7.98185E+00
 4.25000E+01               7.98578E+00
 4.35000E+01               7.98897E+00
 4.45000E+01               7.99152E+00
 4.55000E+01               7.99355E+00
 4.65000E+01               7.99514E+00
 4.75000E+01               7.99637E+00
 4.85000E+01               7.99731E+00
 4.95000E+01               7.99803E+00
 5.05000E+01               7.99857E+00
 5.15000E+01               7.99896E+00
 5.25000E+01               7.99926E+00
 5.35000E+01               7.99947E+00
 5.45000E+01               7.99963E+00
 5.55000E+01               7.99974E+00
 5.65000E+01               7.99982E+00
 5.75000E+01               7.99987E+00
 5.85000E+01               7.99991E+00
 5.95000E+01               7.99994E+00
 6.05000E+01               7.99996E+00
 6.15000E+01               7.99997E+00
 6.25000E+01               7.99998E+00
 6.35000E+01               7.99999E+00
 6.45000E+01               7.99999E+00
 6.55000E+01               7.99999E+00
 6.65000E+01               8.00000E+00
 6.75000E+01               8.00000E+00
 6.85000E+01               8.00000E+00
 6.95000E+01               8.00000E+00
 7.05000E+01               8.00000E+00
 7.15000E+01               8.00000E+00
 7.25000E+01               8.00000E+00
 7.35000E+01               8.00000E+00
 7.45000E+01               8.00000E+00
 7.55000E+01               8.00000E+00
 7.65000E+01               8.00000E+00
 7.75000E+01               8.00000E+00
 7.85000E+01               8.00000E+00
 7.95000E+01               8.00000E+00
 8.05000E+01               8.00000E+00
 8.15000E+01               8.00000E+00
 8.25000E+01               8.00000E+00
 8.35000E+01               8.00000E+00
 8.45000E+01               8.00000E+00
 8.55000E+01               8.00000E+00
 8.65000E+01               8.00000E+00
 8.75000E+01               8.00000E+00
 8.85000E+01               8.00000E+00
 8.95000E+01               8.00000E+00
 9.05000E+01               8.00000E+00
 9.15000E+01               8.00000E+00
 9.25000E+01               8.00000E+00
 9.35000E+01               8.00000E+00
 9.45000E+01               8.00000E+00
 9.55000E+01               8.00000E+00
 9.65000E+01               8.00000E+00
 9.75000E+01               8.00000E+00
 9.85000E+01               8.00000E+00
 9.95000E+01               8.00000E+00
