 TITLE = " Years"
 VARIABLES = "X (meters)", "pH "
 ZONE F=POINT,I=         100
 5.00000E-01               5.00000E+00
 1.50000E+00               5.00000E+00
 2.50000E+00               5.00000E+00
 3.50000E+00               5.00003E+00
 4.50000E+00               5.00012E+00
 5.50000E+00               5.00048E+00
 6.50000E+00               5.00182E+00
 7.50000E+00               5.00651E+00
 8.50000E+00               5.02229E+00
 9.50000E+00               5.07327E+00
 1.05000E+01               5.21964E+00
 1.15000E+01               5.53139E+00
 1.25000E+01               6.01539E+00
 1.35000E+01               6.83931E+00
 1.45000E+01               7.74428E+00
 1.55000E+01               7.75496E+00
 1.65000E+01               7.75638E+00
 1.75000E+01               7.75833E+00
 1.85000E+01               7.76103E+00
 1.95000E+01               7.76462E+00
 2.05000E+01               7.76926E+00
 2.15000E+01               7.77506E+00
 2.25000E+01               7.78212E+00
 2.35000E+01               7.79049E+00
 2.45000E+01               7.80016E+00
 2.55000E+01               7.81110E+00
 2.65000E+01               7.82318E+00
 2.75000E+01               7.83626E+00
 2.85000E+01               7.85013E+00
 2.95000E+01               7.86454E+00
 3.05000E+01               7.87923E+00
 3.15000E+01               7.89392E+00
 3.25000E+01               7.90833E+00
 3.35000E+01               7.92222E+00
 3.45000E+01               7.93535E+00
 3.55000E+01               7.94754E+00
 3.65000E+01               7.95867E+00
 3.75000E+01               7.96864E+00
 3.85000E+01               7.97744E+00
 3.95000E+01               7.98506E+00
 4.05000E+01               7.99157E+00
 4.15000E+01               7.99705E+00
 4.25000E+01               8.00158E+00
 4.35000E+01               8.00529E+00
 4.45000E+01               8.00828E+00
 4.55000E+01               8.01067E+00
 4.65000E+01               8.01254E+00
 4.75000E+01               8.01400E+00
 4.85000E+01               8.01513E+00
 4.95000E+01               8.01598E+00
 5.05000E+01               8.01663E+00
 5.15000E+01               8.01712E+00
 5.25000E+01               8.01747E+00
 5.35000E+01               8.01774E+00
 5.45000E+01               8.01793E+00
 5.55000E+01               8.01807E+00
 5.65000E+01               8.01817E+00
 5.75000E+01               8.01824E+00
 5.85000E+01               8.01829E+00
 5.95000E+01               8.01832E+00
 6.05000E+01               8.01835E+00
 6.15000E+01               8.01836E+00
 6.25000E+01               8.01838E+00
 6.35000E+01               8.01838E+00
 6.45000E+01               8.01839E+00
 6.55000E+01               8.01839E+00
 6.65000E+01               8.01840E+00
 6.75000E+01               8.01840E+00
 6.85000E+01               8.01840E+00
 6.95000E+01               8.01840E+00
 7.05000E+01               8.01840E+00
 7.15000E+01               8.01840E+00
 7.25000E+01               8.01840E+00
 7.35000E+01               8.01840E+00
 7.45000E+01               8.01840E+00
 7.55000E+01               8.01840E+00
 7.65000E+01               8.01840E+00
 7.75000E+01               8.01840E+00
 7.85000E+01               8.01840E+00
 7.95000E+01               8.01840E+00
 8.05000E+01               8.01840E+00
 8.15000E+01               8.01840E+00
 8.25000E+01               8.01840E+00
 8.35000E+01               8.01840E+00
 8.45000E+01               8.01840E+00
 8.55000E+01               8.01840E+00
 8.65000E+01               8.01840E+00
 8.75000E+01               8.01840E+00
 8.85000E+01               8.01840E+00
 8.95000E+01               8.01840E+00
 9.05000E+01               8.01840E+00
 9.15000E+01               8.01840E+00
 9.25000E+01               8.01840E+00
 9.35000E+01               8.01840E+00
 9.45000E+01               8.01840E+00
 9.55000E+01               8.01840E+00
 9.65000E+01               8.01840E+00
 9.75000E+01               8.01840E+00
 9.85000E+01               8.01840E+00
 9.95000E+01               8.01840E+00
