 TITLE = " Years"
 VARIABLES = "X (meters)", "pH "
 ZONE F=POINT,I=         100
 5.00000E-01               5.00000E+00
 1.50000E+00               5.00000E+00
 2.50000E+00               5.00000E+00
 3.50000E+00               5.00000E+00
 4.50000E+00               5.00000E+00
 5.50000E+00               5.00000E+00
 6.50000E+00               5.00001E+00
 7.50000E+00               5.00002E+00
 8.50000E+00               5.00009E+00
 9.50000E+00               5.00032E+00
 1.05000E+01               5.00114E+00
 1.15000E+01               5.00392E+00
 1.25000E+01               5.01316E+00
 1.35000E+01               5.04279E+00
 1.45000E+01               5.13038E+00
 1.55000E+01               5.34314E+00
 1.65000E+01               5.72553E+00
 1.75000E+01               6.29300E+00
 1.85000E+01               7.71964E+00
 1.95000E+01               7.75753E+00
 2.05000E+01               7.75802E+00
 2.15000E+01               7.75846E+00
 2.25000E+01               7.75909E+00
 2.35000E+01               7.75999E+00
 2.45000E+01               7.76123E+00
 2.55000E+01               7.76289E+00
 2.65000E+01               7.76506E+00
 2.75000E+01               7.76783E+00
 2.85000E+01               7.77130E+00
 2.95000E+01               7.77552E+00
 3.05000E+01               7.78058E+00
 3.15000E+01               7.78652E+00
 3.25000E+01               7.79335E+00
 3.35000E+01               7.80108E+00
 3.45000E+01               7.80967E+00
 3.55000E+01               7.81907E+00
 3.65000E+01               7.82919E+00
 3.75000E+01               7.83992E+00
 3.85000E+01               7.85112E+00
 3.95000E+01               7.86264E+00
 4.05000E+01               7.87431E+00
 4.15000E+01               7.88598E+00
 4.25000E+01               7.89746E+00
 4.35000E+01               7.90862E+00
 4.45000E+01               7.91929E+00
 4.55000E+01               7.92938E+00
 4.65000E+01               7.93877E+00
 4.75000E+01               7.94741E+00
 4.85000E+01               7.95524E+00
 4.95000E+01               7.96225E+00
 5.05000E+01               7.96845E+00
 5.15000E+01               7.97386E+00
 5.25000E+01               7.97853E+00
 5.35000E+01               7.98252E+00
 5.45000E+01               7.98589E+00
 5.55000E+01               7.98870E+00
 5.65000E+01               7.99102E+00
 5.75000E+01               7.99292E+00
 5.85000E+01               7.99446E+00
 5.95000E+01               7.99570E+00
 6.05000E+01               7.99668E+00
 6.15000E+01               7.99746E+00
 6.25000E+01               7.99807E+00
 6.35000E+01               7.99854E+00
 6.45000E+01               7.99890E+00
 6.55000E+01               7.99918E+00
 6.65000E+01               7.99939E+00
 6.75000E+01               7.99955E+00
 6.85000E+01               7.99967E+00
 6.95000E+01               7.99976E+00
 7.05000E+01               7.99983E+00
 7.15000E+01               7.99988E+00
 7.25000E+01               7.99991E+00
 7.35000E+01               7.99994E+00
 7.45000E+01               7.99996E+00
 7.55000E+01               7.99997E+00
 7.65000E+01               7.99998E+00
 7.75000E+01               7.99998E+00
 7.85000E+01               7.99999E+00
 7.95000E+01               7.99999E+00
 8.05000E+01               7.99999E+00
 8.15000E+01               8.00000E+00
 8.25000E+01               8.00000E+00
 8.35000E+01               8.00000E+00
 8.45000E+01               8.00000E+00
 8.55000E+01               8.00000E+00
 8.65000E+01               8.00000E+00
 8.75000E+01               8.00000E+00
 8.85000E+01               8.00000E+00
 8.95000E+01               8.00000E+00
 9.05000E+01               8.00000E+00
 9.15000E+01               8.00000E+00
 9.25000E+01               8.00000E+00
 9.35000E+01               8.00000E+00
 9.45000E+01               8.00000E+00
 9.55000E+01               8.00000E+00
 9.65000E+01               8.00000E+00
 9.75000E+01               8.00000E+00
 9.85000E+01               8.00000E+00
 9.95000E+01               8.00000E+00
