 TITLE = " Years"
 VARIABLES = "X (meters)", "pH "
 ZONE F=POINT,I=         100
 5.00000E-01               5.00000E+00
 1.50000E+00               5.00000E+00
 2.50000E+00               5.00000E+00
 3.50000E+00               5.00000E+00
 4.50000E+00               5.00000E+00
 5.50000E+00               5.00000E+00
 6.50000E+00               5.00000E+00
 7.50000E+00               5.00000E+00
 8.50000E+00               5.00000E+00
 9.50000E+00               5.00000E+00
 1.05000E+01               5.00000E+00
 1.15000E+01               5.00002E+00
 1.25000E+01               5.00005E+00
 1.35000E+01               5.00018E+00
 1.45000E+01               5.00061E+00
 1.55000E+01               5.00201E+00
 1.65000E+01               5.00652E+00
 1.75000E+01               5.02097E+00
 1.85000E+01               5.06599E+00
 1.95000E+01               5.19425E+00
 2.05000E+01               5.48192E+00
 2.15000E+01               5.93846E+00
 2.25000E+01               6.63920E+00
 2.35000E+01               7.74036E+00
 2.45000E+01               7.75735E+00
 2.55000E+01               7.75754E+00
 2.65000E+01               7.75769E+00
 2.75000E+01               7.75791E+00
 2.85000E+01               7.75823E+00
 2.95000E+01               7.75868E+00
 3.05000E+01               7.75930E+00
 3.15000E+01               7.76014E+00
 3.25000E+01               7.76124E+00
 3.35000E+01               7.76267E+00
 3.45000E+01               7.76449E+00
 3.55000E+01               7.76676E+00
 3.65000E+01               7.76953E+00
 3.75000E+01               7.77287E+00
 3.85000E+01               7.77683E+00
 3.95000E+01               7.78145E+00
 4.05000E+01               7.78677E+00
 4.15000E+01               7.79280E+00
 4.25000E+01               7.79953E+00
 4.35000E+01               7.80696E+00
 4.45000E+01               7.81506E+00
 4.55000E+01               7.82376E+00
 4.65000E+01               7.83299E+00
 4.75000E+01               7.84269E+00
 4.85000E+01               7.85274E+00
 4.95000E+01               7.86304E+00
 5.05000E+01               7.87347E+00
 5.15000E+01               7.88391E+00
 5.25000E+01               7.89424E+00
 5.35000E+01               7.90435E+00
 5.45000E+01               7.91413E+00
 5.55000E+01               7.92349E+00
 5.65000E+01               7.93234E+00
 5.75000E+01               7.94062E+00
 5.85000E+01               7.94828E+00
 5.95000E+01               7.95530E+00
 6.05000E+01               7.96165E+00
 6.15000E+01               7.96735E+00
 6.25000E+01               7.97240E+00
 6.35000E+01               7.97685E+00
 6.45000E+01               7.98071E+00
 6.55000E+01               7.98405E+00
 6.65000E+01               7.98690E+00
 6.75000E+01               7.98931E+00
 6.85000E+01               7.99134E+00
 6.95000E+01               7.99303E+00
 7.05000E+01               7.99442E+00
 7.15000E+01               7.99557E+00
 7.25000E+01               7.99650E+00
 7.35000E+01               7.99725E+00
 7.45000E+01               7.99785E+00
 7.55000E+01               7.99833E+00
 7.65000E+01               7.99871E+00
 7.75000E+01               7.99901E+00
 7.85000E+01               7.99925E+00
 7.95000E+01               7.99943E+00
 8.05000E+01               7.99957E+00
 8.15000E+01               7.99968E+00
 8.25000E+01               7.99976E+00
 8.35000E+01               7.99982E+00
 8.45000E+01               7.99987E+00
 8.55000E+01               7.99990E+00
 8.65000E+01               7.99993E+00
 8.75000E+01               7.99995E+00
 8.85000E+01               7.99996E+00
 8.95000E+01               7.99997E+00
 9.05000E+01               7.99998E+00
 9.15000E+01               7.99999E+00
 9.25000E+01               7.99999E+00
 9.35000E+01               7.99999E+00
 9.45000E+01               7.99999E+00
 9.55000E+01               8.00000E+00
 9.65000E+01               8.00000E+00
 9.75000E+01               8.00000E+00
 9.85000E+01               8.00000E+00
 9.95000E+01               8.00000E+00
