# Units: Mol/kgw
 TITLE = " Years"
VARIABLES = "X (meters)", "H+        ", "HCO3-     ", "Ca++      ", "Tracer    ", "
 ZONE F=POINT,I=         100
 5.00000E-01               9.66128E-04   1.00000E-03   1.69361E-05   1.00000E-03
 1.50000E+00               9.66128E-04   1.00000E-03   1.69361E-05   1.00000E-03
 2.50000E+00               9.66128E-04   1.00000E-03   1.69361E-05   1.00000E-03
 3.50000E+00               9.66128E-04   1.00000E-03   1.69361E-05   1.00000E-03
 4.50000E+00               9.66128E-04   1.00000E-03   1.69361E-05   1.00000E-03
 5.50000E+00               9.66128E-04   1.00000E-03   1.69362E-05   1.00000E-03
 6.50000E+00               9.66127E-04   1.00000E-03   1.69364E-05   1.00000E-03
 7.50000E+00               9.66126E-04   1.00000E-03   1.69375E-05   1.00000E-03
 8.50000E+00               9.66122E-04   1.00001E-03   1.69414E-05   9.99999E-04
 9.50000E+00               9.66108E-04   1.00002E-03   1.69555E-05   9.99998E-04
 1.05000E+01               9.66057E-04   1.00007E-03   1.70051E-05   9.99996E-04
 1.15000E+01               9.65884E-04   1.00024E-03   1.71753E-05   9.99990E-04
 1.25000E+01               9.65307E-04   1.00082E-03   1.77474E-05   9.99976E-04
 1.35000E+01               9.63403E-04   1.00271E-03   1.96393E-05   9.99946E-04
 1.45000E+01               9.57248E-04   1.00885E-03   2.57711E-05   9.99888E-04
 1.55000E+01               9.37773E-04   1.02830E-03   4.52015E-05   9.99776E-04
 1.65000E+01               8.75600E-04   1.09043E-03   1.07293E-04   9.99573E-04
 1.75000E+01               6.70569E-04   1.29537E-03   3.12182E-04   9.99218E-04
 1.85000E+01               5.92504E-05   1.90655E-03   9.23262E-04   9.98622E-04
 1.95000E+01               5.24310E-05   1.91314E-03   9.29696E-04   9.97658E-04
 2.05000E+01               5.23393E-05   1.91287E-03   9.29187E-04   9.96157E-04
 2.15000E+01               5.22566E-05   1.91241E-03   9.28364E-04   9.93895E-04
 2.25000E+01               5.21361E-05   1.91174E-03   9.27163E-04   9.90594E-04
 2.35000E+01               5.19656E-05   1.91080E-03   9.25464E-04   9.85923E-04
 2.45000E+01               5.17312E-05   1.90950E-03   9.23129E-04   9.79502E-04
 2.55000E+01               5.14179E-05   1.90776E-03   9.20005E-04   9.70916E-04
 2.65000E+01               5.10100E-05   1.90550E-03   9.15938E-04   9.59734E-04
 2.75000E+01               5.04924E-05   1.90262E-03   9.10772E-04   9.45534E-04
 2.85000E+01               4.98518E-05   1.89906E-03   9.04368E-04   9.27933E-04
 2.95000E+01               4.90770E-05   1.89474E-03   8.96609E-04   9.06612E-04
 3.05000E+01               4.81610E-05   1.88962E-03   8.87415E-04   8.81351E-04
 3.15000E+01               4.71013E-05   1.88368E-03   8.76747E-04   8.52050E-04
 3.25000E+01               4.59006E-05   1.87693E-03   8.64618E-04   8.18747E-04
 3.35000E+01               4.45671E-05   1.86940E-03   8.51096E-04   7.81630E-04
 3.45000E+01               4.31142E-05   1.86115E-03   8.36300E-04   7.41032E-04
 3.55000E+01               4.15601E-05   1.85229E-03   8.20400E-04   6.97425E-04
 3.65000E+01               3.99268E-05   1.84293E-03   8.03610E-04   6.51394E-04
 3.75000E+01               3.82392E-05   1.83320E-03   7.86175E-04   6.03614E-04
 3.85000E+01               3.65233E-05   1.82326E-03   7.68360E-04   5.54817E-04
 3.95000E+01               3.48056E-05   1.81326E-03   7.50441E-04   5.05755E-04
 4.05000E+01               3.31114E-05   1.80334E-03   7.32687E-04   4.57165E-04
 4.15000E+01               3.14641E-05   1.79366E-03   7.15353E-04   4.09740E-04
 4.25000E+01               2.98842E-05   1.78434E-03   6.98666E-04   3.64100E-04
 4.35000E+01               2.83888E-05   1.77549E-03   6.82821E-04   3.20775E-04
 4.45000E+01               2.69913E-05   1.76719E-03   6.67973E-04   2.80186E-04
 4.55000E+01               2.57012E-05   1.75951E-03   6.54237E-04   2.42644E-04
 4.65000E+01               2.45245E-05   1.75249E-03   6.41687E-04   2.08347E-04
 4.75000E+01               2.34635E-05   1.74616E-03   6.30357E-04   1.77390E-04
 4.85000E+01               2.25176E-05   1.74051E-03   6.20249E-04   1.49771E-04
 4.95000E+01               2.16835E-05   1.73552E-03   6.11331E-04   1.25407E-04
 5.05000E+01               2.09558E-05   1.73117E-03   6.03551E-04   1.04148E-04
 5.15000E+01               2.03276E-05   1.72742E-03   5.96833E-04   8.57960E-05
 5.25000E+01               1.97908E-05   1.72421E-03   5.91094E-04   7.01159E-05
 5.35000E+01               1.93366E-05   1.72149E-03   5.86240E-04   5.68528E-05
 5.45000E+01               1.89561E-05   1.71922E-03   5.82174E-04   4.57432E-05
 5.55000E+01               1.86402E-05   1.71733E-03   5.78801E-04   3.65256E-05
 5.65000E+01               1.83805E-05   1.71578E-03   5.76028E-04   2.89479E-05
 5.75000E+01               1.81687E-05   1.71452E-03   5.73768E-04   2.27743E-05
 5.85000E+01               1.79977E-05   1.71350E-03   5.71944E-04   1.77885E-05
 5.95000E+01               1.78607E-05   1.71268E-03   5.70483E-04   1.37960E-05
 6.05000E+01               1.77518E-05   1.71203E-03   5.69323E-04   1.06254E-05
 6.15000E+01               1.76660E-05   1.71152E-03   5.68409E-04   8.12777E-06
 6.25000E+01               1.75990E-05   1.71112E-03   5.67695E-04   6.17575E-06
 6.35000E+01               1.75469E-05   1.71081E-03   5.67141E-04   4.66182E-06
 6.45000E+01               1.75069E-05   1.71058E-03   5.66714E-04   3.49641E-06
 6.55000E+01               1.74762E-05   1.71039E-03   5.66389E-04   2.60583E-06
 6.65000E+01               1.74530E-05   1.71026E-03   5.66141E-04   1.93009E-06
 6.75000E+01               1.74355E-05   1.71015E-03   5.65955E-04   1.42093E-06
 6.85000E+01               1.74223E-05   1.71007E-03   5.65816E-04   1.03988E-06
 6.95000E+01               1.74126E-05   1.71002E-03   5.65712E-04   7.56581E-07
 7.05000E+01               1.74054E-05   1.70997E-03   5.65636E-04   5.47323E-07
 7.15000E+01               1.74001E-05   1.70994E-03   5.65579E-04   3.93727E-07
 7.25000E+01               1.73962E-05   1.70992E-03   5.65538E-04   2.81681E-07
 7.35000E+01               1.73934E-05   1.70990E-03   5.65509E-04   2.00438E-07
 7.45000E+01               1.73914E-05   1.70989E-03   5.65487E-04   1.41875E-07
 7.55000E+01               1.73900E-05   1.70988E-03   5.65472E-04   9.99035E-08
 7.65000E+01               1.73889E-05   1.70988E-03   5.65461E-04   6.99922E-08
 7.75000E+01               1.73882E-05   1.70987E-03   5.65453E-04   4.87927E-08
 7.85000E+01               1.73877E-05   1.70987E-03   5.65448E-04   3.38484E-08
 7.95000E+01               1.73873E-05   1.70987E-03   5.65444E-04   2.33691E-08
 8.05000E+01               1.73871E-05   1.70986E-03   5.65441E-04   1.60585E-08
 8.15000E+01               1.73869E-05   1.70986E-03   5.65439E-04   1.09842E-08
 8.25000E+01               1.73868E-05   1.70986E-03   5.65438E-04   7.47948E-09
 8.35000E+01               1.73867E-05   1.70986E-03   5.65437E-04   5.07047E-09
 8.45000E+01               1.73866E-05   1.70986E-03   5.65437E-04   3.42246E-09
 8.55000E+01               1.73866E-05   1.70986E-03   5.65436E-04   2.30026E-09
 8.65000E+01               1.73866E-05   1.70986E-03   5.65436E-04   1.53956E-09
 8.75000E+01               1.73866E-05   1.70986E-03   5.65436E-04   1.02621E-09
 8.85000E+01               1.73865E-05   1.70986E-03   5.65436E-04   6.81283E-10
 8.95000E+01               1.73865E-05   1.70986E-03   5.65436E-04   4.50508E-10
 9.05000E+01               1.73865E-05   1.70986E-03   5.65436E-04   2.96752E-10
 9.15000E+01               1.73865E-05   1.70986E-03   5.65435E-04   1.94730E-10
 9.25000E+01               1.73865E-05   1.70986E-03   5.65435E-04   1.27306E-10
 9.35000E+01               1.73865E-05   1.70986E-03   5.65435E-04   8.29227E-11
 9.45000E+01               1.73865E-05   1.70986E-03   5.65435E-04   5.38190E-11
 9.55000E+01               1.73865E-05   1.70986E-03   5.65435E-04   3.48067E-11
 9.65000E+01               1.73865E-05   1.70986E-03   5.65435E-04   2.24329E-11
 9.75000E+01               1.73865E-05   1.70986E-03   5.65435E-04   1.44088E-11
 9.85000E+01               1.73865E-05   1.70986E-03   5.65435E-04   9.22481E-12
 9.95000E+01               1.73865E-05   1.70986E-03   5.65435E-04   5.92820E-12
