# Units: Mol/kgw
 TITLE = " Years"
VARIABLES = "X (meters)", "H+        ", "HCO3-     ", "Ca++      ", "Tracer    ", "
 ZONE F=POINT,I=         100
 5.00000E-01               9.66125E-04   1.00000E-03   1.69383E-05   9.99999E-04
 1.50000E+00               9.66107E-04   1.00002E-03   1.69547E-05   9.99994E-04
 2.50000E+00               9.66010E-04   1.00011E-03   1.70425E-05   9.99972E-04
 3.50000E+00               9.65585E-04   1.00052E-03   1.74346E-05   9.99889E-04
 4.50000E+00               9.63929E-04   1.00211E-03   1.89910E-05   9.99641E-04
 5.50000E+00               9.57912E-04   1.00798E-03   2.47514E-05   9.99000E-04
 6.50000E+00               9.37099E-04   1.02844E-03   4.49846E-05   9.97550E-04
 7.50000E+00               8.66689E-04   1.09815E-03   1.14220E-04   9.94616E-04
 8.50000E+00               6.38717E-04   1.32484E-03   3.40034E-04   9.89224E-04
 9.50000E+00               5.81644E-05   1.90322E-03   9.16945E-04   9.80125E-04
 1.05000E+01               5.12596E-05   1.90672E-03   9.18152E-04   9.65891E-04
 1.15000E+01               5.04629E-05   1.90255E-03   9.10621E-04   9.45082E-04
 1.25000E+01               4.94168E-05   1.89676E-03   9.00214E-04   9.16467E-04
 1.35000E+01               4.80611E-05   1.88922E-03   8.86670E-04   8.79242E-04
 1.45000E+01               4.63926E-05   1.87989E-03   8.69914E-04   8.33209E-04
 1.55000E+01               4.44340E-05   1.86887E-03   8.50122E-04   7.78865E-04
 1.65000E+01               4.22328E-05   1.85639E-03   8.27720E-04   7.17394E-04
 1.75000E+01               3.98560E-05   1.84280E-03   8.03344E-04   6.50551E-04
 1.85000E+01               3.73820E-05   1.82853E-03   7.77772E-04   5.80479E-04
 1.95000E+01               3.48927E-05   1.81406E-03   7.51843E-04   5.09476E-04
 2.05000E+01               3.24649E-05   1.79984E-03   7.26373E-04   4.39774E-04
 2.15000E+01               3.01643E-05   1.78627E-03   7.02085E-04   3.73343E-04
 2.25000E+01               2.80419E-05   1.77368E-03   6.79560E-04   3.11763E-04
 2.35000E+01               2.61322E-05   1.76230E-03   6.59209E-04   2.56142E-04
 2.45000E+01               2.44538E-05   1.75227E-03   6.41266E-04   2.07119E-04
 2.55000E+01               2.30109E-05   1.74363E-03   6.25808E-04   1.64893E-04
 2.65000E+01               2.17962E-05   1.73634E-03   6.12778E-04   1.29303E-04
 2.75000E+01               2.07939E-05   1.73032E-03   6.02018E-04   9.99150E-05
 2.85000E+01               1.99824E-05   1.72545E-03   5.93304E-04   7.61146E-05
 2.95000E+01               1.93372E-05   1.72157E-03   5.86375E-04   5.71901E-05
 3.05000E+01               1.88331E-05   1.71854E-03   5.80960E-04   4.24027E-05
 3.15000E+01               1.84455E-05   1.71622E-03   5.76799E-04   3.10374E-05
 3.25000E+01               1.81522E-05   1.71446E-03   5.73651E-04   2.24386E-05
 3.35000E+01               1.79336E-05   1.71314E-03   5.71304E-04   1.60294E-05
 3.45000E+01               1.77729E-05   1.71218E-03   5.69580E-04   1.13198E-05
 3.55000E+01               1.76564E-05   1.71148E-03   5.68330E-04   7.90576E-06
 3.65000E+01               1.75730E-05   1.71098E-03   5.67435E-04   5.46274E-06
 3.75000E+01               1.75141E-05   1.71063E-03   5.66803E-04   3.73603E-06
 3.85000E+01               1.74729E-05   1.71038E-03   5.66362E-04   2.52993E-06
 3.95000E+01               1.74445E-05   1.71021E-03   5.66057E-04   1.69693E-06
 4.05000E+01               1.74250E-05   1.71009E-03   5.65848E-04   1.12780E-06
 4.15000E+01               1.74119E-05   1.71001E-03   5.65707E-04   7.42943E-07
 4.25000E+01               1.74031E-05   1.70996E-03   5.65613E-04   4.85265E-07
 4.35000E+01               1.73973E-05   1.70993E-03   5.65550E-04   3.14368E-07
 4.45000E+01               1.73934E-05   1.70990E-03   5.65509E-04   2.02052E-07
 4.55000E+01               1.73909E-05   1.70989E-03   5.65483E-04   1.28878E-07
 4.65000E+01               1.73893E-05   1.70988E-03   5.65465E-04   8.16023E-08
 4.75000E+01               1.73883E-05   1.70987E-03   5.65454E-04   5.13043E-08
 4.85000E+01               1.73876E-05   1.70987E-03   5.65447E-04   3.20361E-08
 4.95000E+01               1.73872E-05   1.70987E-03   5.65443E-04   1.98732E-08
 5.05000E+01               1.73869E-05   1.70986E-03   5.65440E-04   1.22501E-08
 5.15000E+01               1.73868E-05   1.70986E-03   5.65438E-04   7.50506E-09
 5.25000E+01               1.73867E-05   1.70986E-03   5.65437E-04   4.57091E-09
 5.35000E+01               1.73866E-05   1.70986E-03   5.65436E-04   2.76806E-09
 5.45000E+01               1.73866E-05   1.70986E-03   5.65436E-04   1.66710E-09
 5.55000E+01               1.73866E-05   1.70986E-03   5.65436E-04   9.98710E-10
 5.65000E+01               1.73865E-05   1.70986E-03   5.65436E-04   5.95241E-10
 5.75000E+01               1.73865E-05   1.70986E-03   5.65436E-04   3.53018E-10
 5.85000E+01               1.73865E-05   1.70986E-03   5.65435E-04   2.08365E-10
 5.95000E+01               1.73865E-05   1.70986E-03   5.65435E-04   1.22419E-10
 6.05000E+01               1.73865E-05   1.70986E-03   5.65435E-04   7.16037E-11
 6.15000E+01               1.73865E-05   1.70986E-03   5.65435E-04   4.17015E-11
 6.25000E+01               1.73865E-05   1.70986E-03   5.65435E-04   2.41858E-11
 6.35000E+01               1.73865E-05   1.70986E-03   5.65435E-04   1.39708E-11
 6.45000E+01               1.73865E-05   1.70986E-03   5.65435E-04   8.03885E-12
 6.55000E+01               1.73865E-05   1.70986E-03   5.65435E-04   4.60824E-12
 6.65000E+01               1.73865E-05   1.70986E-03   5.65435E-04   2.63207E-12
 6.75000E+01               1.73865E-05   1.70986E-03   5.65435E-04   1.49808E-12
 6.85000E+01               1.73865E-05   1.70986E-03   5.65435E-04   8.49759E-13
 6.95000E+01               1.73865E-05   1.70986E-03   5.65435E-04   4.80430E-13
 7.05000E+01               1.73865E-05   1.70986E-03   5.65435E-04   2.70761E-13
 7.15000E+01               1.73865E-05   1.70986E-03   5.65435E-04   1.52127E-13
 7.25000E+01               1.73865E-05   1.70986E-03   5.65435E-04   8.52186E-14
 7.35000E+01               1.73865E-05   1.70986E-03   5.65435E-04   4.76007E-14
 7.45000E+01               1.73865E-05   1.70986E-03   5.65435E-04   2.65146E-14
 7.55000E+01               1.73865E-05   1.70986E-03   5.65435E-04   1.47294E-14
 7.65000E+01               1.73865E-05   1.70986E-03   5.65435E-04   8.16120E-15
 7.75000E+01               1.73865E-05   1.70986E-03   5.65435E-04   4.51053E-15
 7.85000E+01               1.73865E-05   1.70986E-03   5.65435E-04   2.48680E-15
 7.95000E+01               1.73865E-05   1.70986E-03   5.65435E-04   1.36781E-15
 8.05000E+01               1.73865E-05   1.70986E-03   5.65435E-04   7.50617E-16
 8.15000E+01               1.73865E-05   1.70986E-03   5.65435E-04   4.11006E-16
 8.25000E+01               1.73865E-05   1.70986E-03   5.65435E-04   2.24567E-16
 8.35000E+01               1.73865E-05   1.70986E-03   5.65435E-04   1.22445E-16
 8.45000E+01               1.73865E-05   1.70986E-03   5.65435E-04   6.66289E-17
 8.55000E+01               1.73865E-05   1.70986E-03   5.65435E-04   3.61857E-17
 8.65000E+01               1.73865E-05   1.70986E-03   5.65435E-04   1.96151E-17
 8.75000E+01               1.73865E-05   1.70986E-03   5.65435E-04   1.06133E-17
 8.85000E+01               1.73865E-05   1.70986E-03   5.65435E-04   5.73246E-18
 8.95000E+01               1.73865E-05   1.70986E-03   5.65435E-04   3.09090E-18
 9.05000E+01               1.73865E-05   1.70986E-03   5.65435E-04   1.66382E-18
 9.15000E+01               1.73865E-05   1.70986E-03   5.65435E-04   8.94182E-19
 9.25000E+01               1.73865E-05   1.70986E-03   5.65435E-04   4.79807E-19
 9.35000E+01               1.73865E-05   1.70986E-03   5.65435E-04   2.57068E-19
 9.45000E+01               1.73865E-05   1.70986E-03   5.65435E-04   1.37528E-19
 9.55000E+01               1.73865E-05   1.70986E-03   5.65435E-04   7.34712E-20
 9.65000E+01               1.73865E-05   1.70986E-03   5.65435E-04   3.91959E-20
 9.75000E+01               1.73865E-05   1.70986E-03   5.65435E-04   2.08825E-20
 9.85000E+01               1.73865E-05   1.70986E-03   5.65435E-04   1.11119E-20
 9.95000E+01               1.73865E-05   1.70986E-03   5.65435E-04   5.95034E-21
