# Units: Mol/kgw
 TITLE = " Years"
VARIABLES = "X (meters)", "H+        ", "HCO3-     ", "Ca++      ", "Tracer    ", "
 ZONE F=POINT,I=         100
 5.00000E-01               9.66444E-04   1.00000E-03   1.67780E-05   1.00000E-03
 1.50000E+00               9.66444E-04   1.00000E-03   1.67781E-05   1.00000E-03
 2.50000E+00               9.66444E-04   1.00000E-03   1.67783E-05   1.00000E-03
 3.50000E+00               9.66442E-04   1.00000E-03   1.67795E-05   1.00000E-03
 4.50000E+00               9.66437E-04   1.00001E-03   1.67847E-05   9.99999E-04
 5.50000E+00               9.66414E-04   1.00003E-03   1.68058E-05   9.99995E-04
 6.50000E+00               9.66331E-04   1.00011E-03   1.68846E-05   9.99985E-04
 7.50000E+00               9.66039E-04   1.00040E-03   1.71643E-05   9.99959E-04
 8.50000E+00               9.65047E-04   1.00138E-03   1.81278E-05   9.99895E-04
 9.50000E+00               9.61684E-04   1.00471E-03   2.14259E-05   9.99751E-04
 1.05000E+01               9.50349E-04   1.01599E-03   3.26278E-05   9.99455E-04
 1.15000E+01               9.13235E-04   1.05300E-03   6.94842E-05   9.98880E-04
 1.25000E+01               7.91802E-04   1.17424E-03   1.90447E-04   9.97833E-04
 1.35000E+01               3.68264E-04   1.59744E-03   6.13177E-04   9.96032E-04
 1.45000E+01               5.52149E-05   1.90994E-03   9.24905E-04   9.93092E-04
 1.55000E+01               5.33044E-05   1.91099E-03   9.24762E-04   9.88518E-04
 1.65000E+01               5.30466E-05   1.90997E-03   9.21966E-04   9.81717E-04
 1.75000E+01               5.26919E-05   1.90851E-03   9.17966E-04   9.72020E-04
 1.85000E+01               5.22051E-05   1.90651E-03   9.12483E-04   9.58724E-04
 1.95000E+01               5.15612E-05   1.90387E-03   9.05237E-04   9.41153E-04
 2.05000E+01               5.07386E-05   1.90049E-03   8.95986E-04   9.18719E-04
 2.15000E+01               4.97216E-05   1.89631E-03   8.84554E-04   8.90993E-04
 2.25000E+01               4.85022E-05   1.89131E-03   8.70851E-04   8.57761E-04
 2.35000E+01               4.70824E-05   1.88549E-03   8.54895E-04   8.19065E-04
 2.45000E+01               4.54739E-05   1.87889E-03   8.36818E-04   7.75223E-04
 2.55000E+01               4.36985E-05   1.87160E-03   8.16862E-04   7.26826E-04
 2.65000E+01               4.17863E-05   1.86375E-03   7.95368E-04   6.74700E-04
 2.75000E+01               3.97742E-05   1.85550E-03   7.72755E-04   6.19857E-04
 2.85000E+01               3.77029E-05   1.84700E-03   7.49488E-04   5.63429E-04
 2.95000E+01               3.56147E-05   1.83845E-03   7.26054E-04   5.06589E-04
 3.05000E+01               3.35506E-05   1.83001E-03   7.02925E-04   4.50483E-04
 3.15000E+01               3.15483E-05   1.82184E-03   6.80537E-04   3.96164E-04
 3.25000E+01               2.96406E-05   1.81408E-03   6.59264E-04   3.44539E-04
 3.35000E+01               2.78538E-05   1.80685E-03   6.39406E-04   2.96335E-04
 3.45000E+01               2.62078E-05   1.80021E-03   6.21181E-04   2.52082E-04
 3.55000E+01               2.47154E-05   1.79422E-03   6.04726E-04   2.12111E-04
 3.65000E+01               2.33828E-05   1.78889E-03   5.90098E-04   1.76567E-04
 3.75000E+01               2.22107E-05   1.78424E-03   5.77289E-04   1.45429E-04
 3.85000E+01               2.11945E-05   1.78022E-03   5.66231E-04   1.18540E-04
 3.95000E+01               2.03256E-05   1.77680E-03   5.56817E-04   9.56395E-05
 4.05000E+01               1.95928E-05   1.77393E-03   5.48908E-04   7.63936E-05
 4.15000E+01               1.89827E-05   1.77155E-03   5.42348E-04   6.04249E-05
 4.25000E+01               1.84813E-05   1.76960E-03   5.36973E-04   4.73380E-05
 4.35000E+01               1.80742E-05   1.76802E-03   5.32621E-04   3.67394E-05
 4.45000E+01               1.77475E-05   1.76676E-03   5.29138E-04   2.82541E-05
 4.55000E+01               1.74883E-05   1.76576E-03   5.26380E-04   2.15353E-05
 4.65000E+01               1.72849E-05   1.76498E-03   5.24220E-04   1.62719E-05
 4.75000E+01               1.71270E-05   1.76437E-03   5.22545E-04   1.21910E-05
 4.85000E+01               1.70056E-05   1.76391E-03   5.21260E-04   9.05821E-06
 4.95000E+01               1.69132E-05   1.76356E-03   5.20283E-04   6.67641E-06
 5.05000E+01               1.68435E-05   1.76329E-03   5.19547E-04   4.88237E-06
 5.15000E+01               1.67915E-05   1.76309E-03   5.18998E-04   3.54318E-06
 5.25000E+01               1.67530E-05   1.76294E-03   5.18591E-04   2.55221E-06
 5.35000E+01               1.67247E-05   1.76284E-03   5.18293E-04   1.82510E-06
 5.45000E+01               1.67041E-05   1.76276E-03   5.18076E-04   1.29593E-06
 5.55000E+01               1.66892E-05   1.76270E-03   5.17920E-04   9.13874E-07
 5.65000E+01               1.66785E-05   1.76266E-03   5.17807E-04   6.40141E-07
 5.75000E+01               1.66709E-05   1.76263E-03   5.17728E-04   4.45479E-07
 5.85000E+01               1.66655E-05   1.76261E-03   5.17671E-04   3.08044E-07
 5.95000E+01               1.66618E-05   1.76260E-03   5.17632E-04   2.11693E-07
 6.05000E+01               1.66592E-05   1.76259E-03   5.17604E-04   1.44603E-07
 6.15000E+01               1.66573E-05   1.76258E-03   5.17585E-04   9.81951E-08
 6.25000E+01               1.66561E-05   1.76258E-03   5.17572E-04   6.63000E-08
 6.35000E+01               1.66552E-05   1.76257E-03   5.17563E-04   4.45156E-08
 6.45000E+01               1.66547E-05   1.76257E-03   5.17557E-04   2.97266E-08
 6.55000E+01               1.66543E-05   1.76257E-03   5.17553E-04   1.97458E-08
 6.65000E+01               1.66540E-05   1.76257E-03   5.17550E-04   1.30485E-08
 6.75000E+01               1.66538E-05   1.76257E-03   5.17548E-04   8.57937E-09
 6.85000E+01               1.66537E-05   1.76257E-03   5.17547E-04   5.61329E-09
 6.95000E+01               1.66536E-05   1.76257E-03   5.17546E-04   3.65510E-09
 7.05000E+01               1.66536E-05   1.76257E-03   5.17546E-04   2.36893E-09
 7.15000E+01               1.66536E-05   1.76257E-03   5.17546E-04   1.52837E-09
 7.25000E+01               1.66535E-05   1.76257E-03   5.17545E-04   9.81686E-10
 7.35000E+01               1.66535E-05   1.76257E-03   5.17545E-04   6.27822E-10
 7.45000E+01               1.66535E-05   1.76257E-03   5.17545E-04   3.99820E-10
 7.55000E+01               1.66535E-05   1.76257E-03   5.17545E-04   2.53572E-10
 7.65000E+01               1.66535E-05   1.76257E-03   5.17545E-04   1.60174E-10
 7.75000E+01               1.66535E-05   1.76257E-03   5.17545E-04   1.00780E-10
 7.85000E+01               1.66535E-05   1.76257E-03   5.17545E-04   6.31677E-11
 7.95000E+01               1.66535E-05   1.76257E-03   5.17545E-04   3.94449E-11
 8.05000E+01               1.66535E-05   1.76257E-03   5.17545E-04   2.45414E-11
 8.15000E+01               1.66535E-05   1.76257E-03   5.17545E-04   1.52146E-11
 8.25000E+01               1.66535E-05   1.76257E-03   5.17545E-04   9.39960E-12
 8.35000E+01               1.66535E-05   1.76257E-03   5.17545E-04   5.78738E-12
 8.45000E+01               1.66535E-05   1.76257E-03   5.17545E-04   3.55151E-12
 8.55000E+01               1.66535E-05   1.76257E-03   5.17545E-04   2.17238E-12
 8.65000E+01               1.66535E-05   1.76257E-03   5.17545E-04   1.32459E-12
 8.75000E+01               1.66535E-05   1.76257E-03   5.17545E-04   8.05165E-13
 8.85000E+01               1.66535E-05   1.76257E-03   5.17545E-04   4.87949E-13
 8.95000E+01               1.66535E-05   1.76257E-03   5.17545E-04   2.94836E-13
 9.05000E+01               1.66535E-05   1.76257E-03   5.17545E-04   1.77637E-13
 9.15000E+01               1.66535E-05   1.76257E-03   5.17545E-04   1.06723E-13
 9.25000E+01               1.66535E-05   1.76257E-03   5.17545E-04   6.39423E-14
 9.35000E+01               1.66535E-05   1.76257E-03   5.17545E-04   3.82072E-14
 9.45000E+01               1.66535E-05   1.76257E-03   5.17545E-04   2.27697E-14
 9.55000E+01               1.66535E-05   1.76257E-03   5.17545E-04   1.35347E-14
 9.65000E+01               1.66535E-05   1.76257E-03   5.17545E-04   8.02505E-15
 9.75000E+01               1.66535E-05   1.76257E-03   5.17545E-04   4.74651E-15
 9.85000E+01               1.66535E-05   1.76257E-03   5.17545E-04   2.80084E-15
 9.95000E+01               1.66535E-05   1.76257E-03   5.17545E-04   1.66106E-15
