# Units: Mol/kgw
 TITLE = " Years"
VARIABLES = "X (meters)", "H+        ", "HCO3-     ", "Ca++      ", "Tracer    ", "
 ZONE F=POINT,I=         100
 5.00000E-01               9.64279E-04   1.00170E-03   1.85411E-05   9.99392E-04
 1.50000E+00               9.53881E-04   1.01141E-03   2.77826E-05   9.96502E-04
 2.50000E+00               9.11826E-04   1.05138E-03   6.63374E-05   9.87756E-04
 3.50000E+00               7.67467E-04   1.19105E-03   2.02849E-04   9.68151E-04
 4.50000E+00               2.64227E-04   1.68582E-03   6.91885E-04   9.32660E-04
 5.50000E+00               4.91964E-05   1.88781E-03   8.85075E-04   8.78091E-04
 6.50000E+00               4.54233E-05   1.87398E-03   8.59360E-04   8.04417E-04
 7.50000E+00               4.22244E-05   1.85582E-03   8.26771E-04   7.15002E-04
 8.50000E+00               3.87090E-05   1.83563E-03   7.90562E-04   6.15750E-04
 9.50000E+00               3.51231E-05   1.81482E-03   7.53278E-04   5.13638E-04
 1.05000E+01               3.16946E-05   1.79475E-03   7.17328E-04   4.15250E-04
 1.15000E+01               2.85940E-05   1.77646E-03   6.84593E-04   3.25715E-04
 1.25000E+01               2.59226E-05   1.76062E-03   6.56252E-04   2.48232E-04
 1.35000E+01               2.37172E-05   1.74751E-03   6.32790E-04   1.84102E-04
 1.45000E+01               2.19650E-05   1.73708E-03   6.14126E-04   1.33092E-04
 1.55000E+01               2.06203E-05   1.72907E-03   5.99800E-04   9.39387E-05
 1.65000E+01               1.96203E-05   1.72312E-03   5.89152E-04   6.48378E-05
 1.75000E+01               1.88977E-05   1.71882E-03   5.81466E-04   4.38285E-05
 1.85000E+01               1.83892E-05   1.71580E-03   5.76063E-04   2.90570E-05
 1.95000E+01               1.80398E-05   1.71373E-03   5.72354E-04   1.89185E-05
 2.05000E+01               1.78051E-05   1.71234E-03   5.69864E-04   1.21117E-05
 2.15000E+01               1.76505E-05   1.71142E-03   5.68227E-04   7.63325E-06
 2.25000E+01               1.75506E-05   1.71083E-03   5.67169E-04   4.74092E-06
 2.35000E+01               1.74871E-05   1.71045E-03   5.66497E-04   2.90467E-06
 2.45000E+01               1.74474E-05   1.71022E-03   5.66078E-04   1.75715E-06
 2.55000E+01               1.74229E-05   1.71008E-03   5.65819E-04   1.05044E-06
 2.65000E+01               1.74081E-05   1.70999E-03   5.65662E-04   6.21048E-07
 2.75000E+01               1.73991E-05   1.70994E-03   5.65568E-04   3.63403E-07
 2.85000E+01               1.73938E-05   1.70990E-03   5.65512E-04   2.10598E-07
 2.95000E+01               1.73907E-05   1.70989E-03   5.65480E-04   1.20948E-07
 3.05000E+01               1.73889E-05   1.70988E-03   5.65461E-04   6.88767E-08
 3.15000E+01               1.73879E-05   1.70987E-03   5.65450E-04   3.89148E-08
 3.25000E+01               1.73873E-05   1.70987E-03   5.65443E-04   2.18245E-08
 3.35000E+01               1.73869E-05   1.70986E-03   5.65440E-04   1.21554E-08
 3.45000E+01               1.73868E-05   1.70986E-03   5.65438E-04   6.72629E-09
 3.55000E+01               1.73866E-05   1.70986E-03   5.65437E-04   3.69952E-09
 3.65000E+01               1.73866E-05   1.70986E-03   5.65436E-04   2.02323E-09
 3.75000E+01               1.73866E-05   1.70986E-03   5.65436E-04   1.10060E-09
 3.85000E+01               1.73865E-05   1.70986E-03   5.65436E-04   5.95726E-10
 3.95000E+01               1.73865E-05   1.70986E-03   5.65436E-04   3.20945E-10
 4.05000E+01               1.73865E-05   1.70986E-03   5.65435E-04   1.72152E-10
 4.15000E+01               1.73865E-05   1.70986E-03   5.65435E-04   9.19628E-11
 4.25000E+01               1.73865E-05   1.70986E-03   5.65435E-04   4.89375E-11
 4.35000E+01               1.73865E-05   1.70986E-03   5.65435E-04   2.59482E-11
 4.45000E+01               1.73865E-05   1.70986E-03   5.65435E-04   1.37123E-11
 4.55000E+01               1.73865E-05   1.70986E-03   5.65435E-04   7.22346E-12
 4.65000E+01               1.73865E-05   1.70986E-03   5.65435E-04   3.79402E-12
 4.75000E+01               1.73865E-05   1.70986E-03   5.65435E-04   1.98727E-12
 4.85000E+01               1.73865E-05   1.70986E-03   5.65435E-04   1.03823E-12
 4.95000E+01               1.73865E-05   1.70986E-03   5.65435E-04   5.41111E-13
 5.05000E+01               1.73865E-05   1.70986E-03   5.65435E-04   2.81386E-13
 5.15000E+01               1.73865E-05   1.70986E-03   5.65435E-04   1.46018E-13
 5.25000E+01               1.73865E-05   1.70986E-03   5.65435E-04   7.56240E-14
 5.35000E+01               1.73865E-05   1.70986E-03   5.65435E-04   3.90946E-14
 5.45000E+01               1.73865E-05   1.70986E-03   5.65435E-04   2.01758E-14
 5.55000E+01               1.73865E-05   1.70986E-03   5.65435E-04   1.03956E-14
 5.65000E+01               1.73865E-05   1.70986E-03   5.65435E-04   5.34834E-15
 5.75000E+01               1.73865E-05   1.70986E-03   5.65435E-04   2.74776E-15
 5.85000E+01               1.73865E-05   1.70986E-03   5.65435E-04   1.40984E-15
 5.95000E+01               1.73865E-05   1.70986E-03   5.65435E-04   7.22475E-16
 6.05000E+01               1.73865E-05   1.70986E-03   5.65435E-04   3.69805E-16
 6.15000E+01               1.73865E-05   1.70986E-03   5.65435E-04   1.89082E-16
 6.25000E+01               1.73865E-05   1.70986E-03   5.65435E-04   9.65787E-17
 6.35000E+01               1.73865E-05   1.70986E-03   5.65435E-04   4.92825E-17
 6.45000E+01               1.73865E-05   1.70986E-03   5.65435E-04   2.51252E-17
 6.55000E+01               1.73865E-05   1.70986E-03   5.65435E-04   1.27983E-17
 6.65000E+01               1.73865E-05   1.70986E-03   5.65435E-04   6.51394E-18
 6.75000E+01               1.73865E-05   1.70986E-03   5.65435E-04   3.31288E-18
 6.85000E+01               1.73865E-05   1.70986E-03   5.65435E-04   1.68367E-18
 6.95000E+01               1.73865E-05   1.70986E-03   5.65435E-04   8.55094E-19
 7.05000E+01               1.73865E-05   1.70986E-03   5.65435E-04   4.34009E-19
 7.15000E+01               1.73865E-05   1.70986E-03   5.65435E-04   2.20154E-19
 7.25000E+01               1.73865E-05   1.70986E-03   5.65435E-04   1.11613E-19
 7.35000E+01               1.73865E-05   1.70986E-03   5.65435E-04   5.65566E-20
 7.45000E+01               1.73865E-05   1.70986E-03   5.65435E-04   2.86447E-20
 7.55000E+01               1.73865E-05   1.70986E-03   5.65435E-04   1.45015E-20
 7.65000E+01               1.73865E-05   1.70986E-03   5.65435E-04   7.33848E-21
 7.75000E+01               1.73865E-05   1.70986E-03   5.65435E-04   3.71224E-21
 7.85000E+01               1.73865E-05   1.70986E-03   5.65435E-04   1.87723E-21
 7.95000E+01               1.73865E-05   1.70986E-03   5.65435E-04   9.48994E-22
 8.05000E+01               1.73865E-05   1.70986E-03   5.65435E-04   4.79606E-22
 8.15000E+01               1.73865E-05   1.70986E-03   5.65435E-04   2.42322E-22
 8.25000E+01               1.73865E-05   1.70986E-03   5.65435E-04   1.22405E-22
 8.35000E+01               1.73865E-05   1.70986E-03   5.65435E-04   6.18172E-23
 8.45000E+01               1.73865E-05   1.70986E-03   5.65435E-04   3.12130E-23
 8.55000E+01               1.73865E-05   1.70986E-03   5.65435E-04   1.57575E-23
 8.65000E+01               1.73865E-05   1.70986E-03   5.65435E-04   7.95370E-24
 8.75000E+01               1.73865E-05   1.70986E-03   5.65435E-04   4.01412E-24
 8.85000E+01               1.73865E-05   1.70986E-03   5.65435E-04   2.02561E-24
 8.95000E+01               1.73865E-05   1.70986E-03   5.65435E-04   1.02205E-24
 9.05000E+01               1.73865E-05   1.70986E-03   5.65435E-04   5.15636E-25
 9.15000E+01               1.73865E-05   1.70986E-03   5.65435E-04   2.60121E-25
 9.25000E+01               1.73865E-05   1.70986E-03   5.65435E-04   1.31211E-25
 9.35000E+01               1.73865E-05   1.70986E-03   5.65435E-04   6.61813E-26
 9.45000E+01               1.73865E-05   1.70986E-03   5.65435E-04   3.33788E-26
 9.55000E+01               1.73865E-05   1.70986E-03   5.65435E-04   1.68339E-26
 9.65000E+01               1.73865E-05   1.70986E-03   5.65435E-04   8.48951E-27
 9.75000E+01               1.73865E-05   1.70986E-03   5.65435E-04   4.28135E-27
 9.85000E+01               1.73865E-05   1.70986E-03   5.65435E-04   2.15938E-27
 9.95000E+01               1.73865E-05   1.70986E-03   5.65435E-04   1.09764E-27
