# Units: Mol/kgw
 TITLE = " Years"
VARIABLES = "X (meters)", "H+        ", "HCO3-     ", "Ca++      ", "Tracer    ", "
 ZONE F=POINT,I=         100
 5.00000E-01               9.64587E-04   1.00174E-03   1.83609E-05   9.99390E-04
 1.50000E+00               9.54114E-04   1.01167E-03   2.75337E-05   9.96494E-04
 2.50000E+00               9.11397E-04   1.05275E-03   6.63178E-05   9.87734E-04
 3.50000E+00               7.65195E-04   1.19528E-03   2.03706E-04   9.68105E-04
 4.50000E+00               2.53608E-04   1.70021E-03   6.99343E-04   9.32584E-04
 5.50000E+00               5.03277E-05   1.89327E-03   8.78108E-04   8.77987E-04
 6.50000E+00               4.65180E-05   1.88329E-03   8.48828E-04   8.04296E-04
 7.50000E+00               4.32263E-05   1.86984E-03   8.11971E-04   7.14883E-04
 8.50000E+00               3.95821E-05   1.85490E-03   7.71058E-04   6.15650E-04
 9.50000E+00               3.58326E-05   1.83954E-03   7.28972E-04   5.13573E-04
 1.05000E+01               3.22141E-05   1.82475E-03   6.88430E-04   4.15226E-04
 1.15000E+01               2.89100E-05   1.81129E-03   6.51549E-04   3.25731E-04
 1.25000E+01               2.60364E-05   1.79967E-03   6.19646E-04   2.48281E-04
 1.35000E+01               2.36437E-05   1.79006E-03   5.93253E-04   1.84173E-04
 1.45000E+01               2.17282E-05   1.78242E-03   5.72269E-04   1.33174E-04
 1.55000E+01               2.02487E-05   1.77657E-03   5.56169E-04   9.40237E-05
 1.65000E+01               1.91429E-05   1.77223E-03   5.44205E-04   6.49177E-05
 1.75000E+01               1.83408E-05   1.76910E-03   5.35569E-04   4.38990E-05
 1.85000E+01               1.77746E-05   1.76690E-03   5.29498E-04   2.91159E-05
 1.95000E+01               1.73848E-05   1.76538E-03   5.25330E-04   1.89657E-05
 2.05000E+01               1.71224E-05   1.76437E-03   5.22531E-04   1.21482E-05
 2.15000E+01               1.69494E-05   1.76370E-03   5.20689E-04   7.66049E-06
 2.25000E+01               1.68375E-05   1.76327E-03   5.19499E-04   4.76071E-06
 2.35000E+01               1.67664E-05   1.76300E-03   5.18743E-04   2.91867E-06
 2.45000E+01               1.67219E-05   1.76283E-03   5.18270E-04   1.76684E-06
 2.55000E+01               1.66944E-05   1.76272E-03   5.17979E-04   1.05700E-06
 2.65000E+01               1.66777E-05   1.76266E-03   5.17802E-04   6.25410E-07
 2.75000E+01               1.66677E-05   1.76262E-03   5.17695E-04   3.66251E-07
 2.85000E+01               1.66617E-05   1.76260E-03   5.17632E-04   2.12428E-07
 2.95000E+01               1.66582E-05   1.76258E-03   5.17595E-04   1.22106E-07
 3.05000E+01               1.66562E-05   1.76258E-03   5.17573E-04   6.96002E-08
 3.15000E+01               1.66550E-05   1.76257E-03   5.17561E-04   3.93608E-08
 3.25000E+01               1.66544E-05   1.76257E-03   5.17554E-04   2.20962E-08
 3.35000E+01               1.66540E-05   1.76257E-03   5.17550E-04   1.23190E-08
 3.45000E+01               1.66538E-05   1.76257E-03   5.17548E-04   6.82386E-09
 3.55000E+01               1.66536E-05   1.76257E-03   5.17546E-04   3.75713E-09
 3.65000E+01               1.66536E-05   1.76257E-03   5.17546E-04   2.05693E-09
 3.75000E+01               1.66535E-05   1.76257E-03   5.17545E-04   1.12015E-09
 3.85000E+01               1.66535E-05   1.76257E-03   5.17545E-04   6.06977E-10
 3.95000E+01               1.66535E-05   1.76257E-03   5.17545E-04   3.27372E-10
 4.05000E+01               1.66535E-05   1.76257E-03   5.17545E-04   1.75797E-10
 4.15000E+01               1.66535E-05   1.76257E-03   5.17545E-04   9.40159E-11
 4.25000E+01               1.66535E-05   1.76257E-03   5.17545E-04   5.00868E-11
 4.35000E+01               1.66535E-05   1.76257E-03   5.17545E-04   2.65879E-11
 4.45000E+01               1.66535E-05   1.76257E-03   5.17545E-04   1.40663E-11
 4.55000E+01               1.66535E-05   1.76257E-03   5.17545E-04   7.41832E-12
 4.65000E+01               1.66535E-05   1.76257E-03   5.17545E-04   3.90075E-12
 4.75000E+01               1.66535E-05   1.76257E-03   5.17545E-04   2.04545E-12
 4.85000E+01               1.66535E-05   1.76257E-03   5.17545E-04   1.06981E-12
 4.95000E+01               1.66535E-05   1.76257E-03   5.17545E-04   5.58181E-13
 5.05000E+01               1.66535E-05   1.76257E-03   5.17545E-04   2.90576E-13
 5.15000E+01               1.66535E-05   1.76257E-03   5.17545E-04   1.50947E-13
 5.25000E+01               1.66535E-05   1.76257E-03   5.17545E-04   7.82579E-14
 5.35000E+01               1.66535E-05   1.76257E-03   5.17545E-04   4.04975E-14
 5.45000E+01               1.66535E-05   1.76257E-03   5.17545E-04   2.09207E-14
 5.55000E+01               1.66535E-05   1.76257E-03   5.17545E-04   1.07899E-14
 5.65000E+01               1.66535E-05   1.76257E-03   5.17545E-04   5.55649E-15
 5.75000E+01               1.66535E-05   1.76257E-03   5.17545E-04   2.85734E-15
 5.85000E+01               1.66535E-05   1.76257E-03   5.17545E-04   1.46738E-15
 5.95000E+01               1.66535E-05   1.76257E-03   5.17545E-04   7.52619E-16
 6.05000E+01               1.66535E-05   1.76257E-03   5.17545E-04   3.85561E-16
 6.15000E+01               1.66535E-05   1.76257E-03   5.17545E-04   1.97300E-16
 6.25000E+01               1.66535E-05   1.76257E-03   5.17545E-04   1.00856E-16
 6.35000E+01               1.66535E-05   1.76257E-03   5.17545E-04   5.15050E-17
 6.45000E+01               1.66535E-05   1.76257E-03   5.17545E-04   2.62777E-17
 6.55000E+01               1.66535E-05   1.76257E-03   5.17545E-04   1.33950E-17
 6.65000E+01               1.66535E-05   1.76257E-03   5.17545E-04   6.82237E-18
 6.75000E+01               1.66535E-05   1.76257E-03   5.17545E-04   3.47206E-18
 6.85000E+01               1.66535E-05   1.76257E-03   5.17545E-04   1.76570E-18
 6.95000E+01               1.66535E-05   1.76257E-03   5.17545E-04   8.97313E-19
 7.05000E+01               1.66535E-05   1.76257E-03   5.17545E-04   4.55708E-19
 7.15000E+01               1.66535E-05   1.76257E-03   5.17545E-04   2.31294E-19
 7.25000E+01               1.66535E-05   1.76257E-03   5.17545E-04   1.17325E-19
 7.35000E+01               1.66535E-05   1.76257E-03   5.17545E-04   5.94822E-20
 7.45000E+01               1.66535E-05   1.76257E-03   5.17545E-04   3.01416E-20
 7.55000E+01               1.66535E-05   1.76257E-03   5.17545E-04   1.52667E-20
 7.65000E+01               1.66535E-05   1.76257E-03   5.17545E-04   7.72924E-21
 7.75000E+01               1.66535E-05   1.76257E-03   5.17545E-04   3.91162E-21
 7.85000E+01               1.66535E-05   1.76257E-03   5.17545E-04   1.97888E-21
 7.95000E+01               1.66535E-05   1.76257E-03   5.17545E-04   1.00077E-21
 8.05000E+01               1.66535E-05   1.76257E-03   5.17545E-04   5.05962E-22
 8.15000E+01               1.66535E-05   1.76257E-03   5.17545E-04   2.55728E-22
 8.25000E+01               1.66535E-05   1.76257E-03   5.17545E-04   1.29220E-22
 8.35000E+01               1.66535E-05   1.76257E-03   5.17545E-04   6.52793E-23
 8.45000E+01               1.66535E-05   1.76257E-03   5.17545E-04   3.29709E-23
 8.55000E+01               1.66535E-05   1.76257E-03   5.17545E-04   1.66495E-23
 8.65000E+01               1.66535E-05   1.76257E-03   5.17545E-04   8.40616E-24
 8.75000E+01               1.66535E-05   1.76257E-03   5.17545E-04   4.24350E-24
 8.85000E+01               1.66535E-05   1.76257E-03   5.17545E-04   2.14184E-24
 8.95000E+01               1.66535E-05   1.76257E-03   5.17545E-04   1.08092E-24
 9.05000E+01               1.66535E-05   1.76257E-03   5.17545E-04   5.45445E-25
 9.15000E+01               1.66535E-05   1.76257E-03   5.17545E-04   2.75207E-25
 9.25000E+01               1.66535E-05   1.76257E-03   5.17545E-04   1.38844E-25
 9.35000E+01               1.66535E-05   1.76257E-03   5.17545E-04   7.00413E-26
 9.45000E+01               1.66535E-05   1.76257E-03   5.17545E-04   3.53304E-26
 9.55000E+01               1.66535E-05   1.76257E-03   5.17545E-04   1.78203E-26
 9.65000E+01               1.66535E-05   1.76257E-03   5.17545E-04   8.98798E-27
 9.75000E+01               1.66535E-05   1.76257E-03   5.17545E-04   4.53319E-27
 9.85000E+01               1.66535E-05   1.76257E-03   5.17545E-04   2.28660E-27
 9.95000E+01               1.66535E-05   1.76257E-03   5.17545E-04   1.16238E-27
