# Units: Mol/kgw
 TITLE = " Years"
VARIABLES = "X (meters)", "H+        ", "HCO3-     ", "Ca++      ", "Tracer    ", "
 ZONE F=POINT,I=         100
 5.00000E-01               9.66128E-04   1.00000E-03   1.69361E-05   1.00000E-03
 1.50000E+00               9.66128E-04   1.00000E-03   1.69361E-05   1.00000E-03
 2.50000E+00               9.66128E-04   1.00000E-03   1.69363E-05   1.00000E-03
 3.50000E+00               9.66126E-04   1.00000E-03   1.69374E-05   1.00000E-03
 4.50000E+00               9.66121E-04   1.00001E-03   1.69421E-05   9.99999E-04
 5.50000E+00               9.66101E-04   1.00003E-03   1.69615E-05   9.99996E-04
 6.50000E+00               9.66023E-04   1.00010E-03   1.70356E-05   9.99987E-04
 7.50000E+00               9.65743E-04   1.00038E-03   1.73055E-05   9.99962E-04
 8.50000E+00               9.64765E-04   1.00134E-03   1.82598E-05   9.99903E-04
 9.50000E+00               9.61373E-04   1.00470E-03   2.15990E-05   9.99770E-04
 1.05000E+01               9.49798E-04   1.01621E-03   3.30624E-05   9.99491E-04
 1.15000E+01               9.12176E-04   1.05370E-03   7.04674E-05   9.98949E-04
 1.25000E+01               7.90739E-04   1.17490E-03   1.91506E-04   9.97954E-04
 1.35000E+01               3.72817E-04   1.59241E-03   6.08739E-04   9.96233E-04
 1.45000E+01               5.41327E-05   1.91042E-03   9.26292E-04   9.93406E-04
 1.55000E+01               5.20882E-05   1.91141E-03   9.26566E-04   9.88983E-04
 1.65000E+01               5.18371E-05   1.91008E-03   9.24172E-04   9.82373E-04
 1.75000E+01               5.14917E-05   1.90816E-03   9.20726E-04   9.72901E-04
 1.85000E+01               5.10164E-05   1.90552E-03   9.15980E-04   9.59856E-04
 1.95000E+01               5.03862E-05   1.90202E-03   9.09682E-04   9.42545E-04
 2.05000E+01               4.95797E-05   1.89752E-03   9.01609E-04   9.20360E-04
 2.15000E+01               4.85817E-05   1.89195E-03   8.91595E-04   8.92846E-04
 2.25000E+01               4.73851E-05   1.88524E-03   8.79552E-04   8.59767E-04
 2.35000E+01               4.59927E-05   1.87741E-03   8.65486E-04   8.21144E-04
 2.45000E+01               4.44177E-05   1.86851E-03   8.49505E-04   7.77281E-04
 2.55000E+01               4.26833E-05   1.85865E-03   8.31819E-04   7.28761E-04
 2.65000E+01               4.08213E-05   1.84801E-03   8.12730E-04   6.76413E-04
 2.75000E+01               3.88695E-05   1.83679E-03   7.92608E-04   6.21262E-04
 2.85000E+01               3.68697E-05   1.82522E-03   7.71872E-04   5.64457E-04
 2.95000E+01               3.48639E-05   1.81354E-03   7.50960E-04   5.07197E-04
 3.05000E+01               3.28927E-05   1.80201E-03   7.30300E-04   4.50655E-04
 3.15000E+01               3.09922E-05   1.79083E-03   7.10289E-04   3.95908E-04
 3.25000E+01               2.91930E-05   1.78020E-03   6.91267E-04   3.43888E-04
 3.35000E+01               2.75191E-05   1.77028E-03   6.73510E-04   2.95341E-04
 3.45000E+01               2.59875E-05   1.76117E-03   6.57219E-04   2.50810E-04
 3.55000E+01               2.46081E-05   1.75296E-03   6.42518E-04   2.10633E-04
 3.65000E+01               2.33847E-05   1.74566E-03   6.29462E-04   1.74957E-04
 3.75000E+01               2.23156E-05   1.73927E-03   6.18044E-04   1.43756E-04
 3.85000E+01               2.13945E-05   1.73377E-03   6.08202E-04   1.16867E-04
 3.95000E+01               2.06119E-05   1.72910E-03   5.99840E-04   9.40178E-05
 4.05000E+01               1.99557E-05   1.72518E-03   5.92830E-04   7.48637E-05
 4.15000E+01               1.94127E-05   1.72193E-03   5.87030E-04   5.90158E-05
 4.25000E+01               1.89688E-05   1.71928E-03   5.82291E-04   4.60676E-05
 4.35000E+01               1.86103E-05   1.71715E-03   5.78467E-04   3.56164E-05
 4.45000E+01               1.83242E-05   1.71544E-03   5.75416E-04   2.72789E-05
 4.55000E+01               1.80984E-05   1.71410E-03   5.73010E-04   2.07026E-05
 4.65000E+01               1.79222E-05   1.71305E-03   5.71132E-04   1.55718E-05
 4.75000E+01               1.77861E-05   1.71224E-03   5.69683E-04   1.16109E-05
 4.85000E+01               1.76821E-05   1.71162E-03   5.68576E-04   8.58420E-06
 4.95000E+01               1.76033E-05   1.71115E-03   5.67738E-04   6.29407E-06
 5.05000E+01               1.75442E-05   1.71080E-03   5.67110E-04   4.57778E-06
 5.15000E+01               1.75004E-05   1.71054E-03   5.66644E-04   3.30337E-06
 5.25000E+01               1.74681E-05   1.71035E-03   5.66301E-04   2.36552E-06
 5.35000E+01               1.74445E-05   1.71021E-03   5.66050E-04   1.68131E-06
 5.45000E+01               1.74274E-05   1.71010E-03   5.65869E-04   1.18633E-06
 5.55000E+01               1.74152E-05   1.71003E-03   5.65739E-04   8.31148E-07
 5.65000E+01               1.74065E-05   1.70998E-03   5.65647E-04   5.78294E-07
 5.75000E+01               1.74003E-05   1.70994E-03   5.65582E-04   3.99660E-07
 5.85000E+01               1.73960E-05   1.70992E-03   5.65536E-04   2.74399E-07
 5.95000E+01               1.73930E-05   1.70990E-03   5.65504E-04   1.87195E-07
 6.05000E+01               1.73909E-05   1.70989E-03   5.65482E-04   1.26910E-07
 6.15000E+01               1.73895E-05   1.70988E-03   5.65467E-04   8.55186E-08
 6.25000E+01               1.73885E-05   1.70987E-03   5.65456E-04   5.72864E-08
 6.35000E+01               1.73878E-05   1.70987E-03   5.65449E-04   3.81535E-08
 6.45000E+01               1.73874E-05   1.70987E-03   5.65445E-04   2.52681E-08
 6.55000E+01               1.73871E-05   1.70986E-03   5.65441E-04   1.66429E-08
 6.65000E+01               1.73869E-05   1.70986E-03   5.65439E-04   1.09034E-08
 6.75000E+01               1.73868E-05   1.70986E-03   5.65438E-04   7.10601E-09
 6.85000E+01               1.73867E-05   1.70986E-03   5.65437E-04   4.60768E-09
 6.95000E+01               1.73866E-05   1.70986E-03   5.65437E-04   2.97291E-09
 7.05000E+01               1.73866E-05   1.70986E-03   5.65436E-04   1.90889E-09
 7.15000E+01               1.73866E-05   1.70986E-03   5.65436E-04   1.21991E-09
 7.25000E+01               1.73865E-05   1.70986E-03   5.65436E-04   7.76020E-10
 7.35000E+01               1.73865E-05   1.70986E-03   5.65436E-04   4.91435E-10
 7.45000E+01               1.73865E-05   1.70986E-03   5.65436E-04   3.09852E-10
 7.55000E+01               1.73865E-05   1.70986E-03   5.65435E-04   1.94528E-10
 7.65000E+01               1.73865E-05   1.70986E-03   5.65435E-04   1.21617E-10
 7.75000E+01               1.73865E-05   1.70986E-03   5.65435E-04   7.57244E-11
 7.85000E+01               1.73865E-05   1.70986E-03   5.65435E-04   4.69620E-11
 7.95000E+01               1.73865E-05   1.70986E-03   5.65435E-04   2.90113E-11
 8.05000E+01               1.73865E-05   1.70986E-03   5.65435E-04   1.78542E-11
 8.15000E+01               1.73865E-05   1.70986E-03   5.65435E-04   1.09471E-11
 8.25000E+01               1.73865E-05   1.70986E-03   5.65435E-04   6.68786E-12
 8.35000E+01               1.73865E-05   1.70986E-03   5.65435E-04   4.07134E-12
 8.45000E+01               1.73865E-05   1.70986E-03   5.65435E-04   2.46994E-12
 8.55000E+01               1.73865E-05   1.70986E-03   5.65435E-04   1.49337E-12
 8.65000E+01               1.73865E-05   1.70986E-03   5.65435E-04   8.99946E-13
 8.75000E+01               1.73865E-05   1.70986E-03   5.65435E-04   5.40585E-13
 8.85000E+01               1.73865E-05   1.70986E-03   5.65435E-04   3.23699E-13
 8.95000E+01               1.73865E-05   1.70986E-03   5.65435E-04   1.93233E-13
 9.05000E+01               1.73865E-05   1.70986E-03   5.65435E-04   1.15004E-13
 9.15000E+01               1.73865E-05   1.70986E-03   5.65435E-04   6.82446E-14
 9.25000E+01               1.73865E-05   1.70986E-03   5.65435E-04   4.03805E-14
 9.35000E+01               1.73865E-05   1.70986E-03   5.65435E-04   2.38261E-14
 9.45000E+01               1.73865E-05   1.70986E-03   5.65435E-04   1.40197E-14
 9.55000E+01               1.73865E-05   1.70986E-03   5.65435E-04   8.22730E-15
 9.65000E+01               1.73865E-05   1.70986E-03   5.65435E-04   4.81539E-15
 9.75000E+01               1.73865E-05   1.70986E-03   5.65435E-04   2.81118E-15
 9.85000E+01               1.73865E-05   1.70986E-03   5.65435E-04   1.63713E-15
 9.95000E+01               1.73865E-05   1.70986E-03   5.65435E-04   9.58153E-16
