# Units: Mol/kgw
 TITLE = " Years"
VARIABLES = "X (meters)", "H+        ", "HCO3-     ", "Ca++      ", "Tracer    ", "
 ZONE F=POINT,I=         100
 5.00000E-01               9.66128E-04   1.00000E-03   1.69361E-05   1.00000E-03
 1.50000E+00               9.66128E-04   1.00000E-03   1.69361E-05   1.00000E-03
 2.50000E+00               9.66128E-04   1.00000E-03   1.69361E-05   1.00000E-03
 3.50000E+00               9.66128E-04   1.00000E-03   1.69361E-05   1.00000E-03
 4.50000E+00               9.66128E-04   1.00000E-03   1.69361E-05   1.00000E-03
 5.50000E+00               9.66128E-04   1.00000E-03   1.69361E-05   1.00000E-03
 6.50000E+00               9.66128E-04   1.00000E-03   1.69361E-05   1.00000E-03
 7.50000E+00               9.66128E-04   1.00000E-03   1.69361E-05   1.00000E-03
 8.50000E+00               9.66128E-04   1.00000E-03   1.69361E-05   1.00000E-03
 9.50000E+00               9.66128E-04   1.00000E-03   1.69362E-05   1.00000E-03
 1.05000E+01               9.66128E-04   1.00000E-03   1.69363E-05   1.00000E-03
 1.15000E+01               9.66127E-04   1.00000E-03   1.69370E-05   1.00000E-03
 1.25000E+01               9.66125E-04   1.00000E-03   1.69393E-05   1.00000E-03
 1.35000E+01               9.66117E-04   1.00001E-03   1.69471E-05   1.00000E-03
 1.45000E+01               9.66090E-04   1.00004E-03   1.69733E-05   9.99999E-04
 1.55000E+01               9.66004E-04   1.00012E-03   1.70591E-05   9.99998E-04
 1.65000E+01               9.65724E-04   1.00040E-03   1.73381E-05   9.99995E-04
 1.75000E+01               9.64816E-04   1.00131E-03   1.82434E-05   9.99989E-04
 1.85000E+01               9.61864E-04   1.00426E-03   2.11910E-05   9.99977E-04
 1.95000E+01               9.52188E-04   1.01393E-03   3.08577E-05   9.99954E-04
 2.05000E+01               9.20275E-04   1.04583E-03   6.27544E-05   9.99913E-04
 2.15000E+01               8.17610E-04   1.14848E-03   1.65390E-04   9.99841E-04
 2.25000E+01               4.80851E-04   1.48521E-03   5.02100E-04   9.99718E-04
 2.35000E+01               5.54888E-05   1.91052E-03   9.27381E-04   9.99515E-04
 2.45000E+01               5.24657E-05   1.91347E-03   9.30273E-04   9.99188E-04
 2.55000E+01               5.24306E-05   1.91338E-03   9.30104E-04   9.98678E-04
 2.65000E+01               5.24020E-05   1.91322E-03   9.29823E-04   9.97903E-04
 2.75000E+01               5.23598E-05   1.91299E-03   9.29406E-04   9.96757E-04
 2.85000E+01               5.22990E-05   1.91266E-03   9.28805E-04   9.95103E-04
 2.95000E+01               5.22133E-05   1.91219E-03   9.27958E-04   9.92773E-04
 3.05000E+01               5.20953E-05   1.91154E-03   9.26792E-04   9.89565E-04
 3.15000E+01               5.19365E-05   1.91067E-03   9.25222E-04   9.85246E-04
 3.25000E+01               5.17273E-05   1.90952E-03   9.23153E-04   9.79552E-04
 3.35000E+01               5.14573E-05   1.90803E-03   9.20480E-04   9.72201E-04
 3.45000E+01               5.11159E-05   1.90615E-03   9.17098E-04   9.62897E-04
 3.55000E+01               5.06924E-05   1.90381E-03   9.12897E-04   9.51344E-04
 3.65000E+01               5.01770E-05   1.90096E-03   9.07777E-04   9.37263E-04
 3.75000E+01               4.95609E-05   1.89755E-03   9.01645E-04   9.20403E-04
 3.85000E+01               4.88374E-05   1.89354E-03   8.94428E-04   9.00563E-04
 3.95000E+01               4.80023E-05   1.88889E-03   8.86074E-04   8.77605E-04
 4.05000E+01               4.70540E-05   1.88359E-03   8.76560E-04   8.51464E-04
 4.15000E+01               4.59945E-05   1.87765E-03   8.65892E-04   8.22164E-04
 4.25000E+01               4.48288E-05   1.87109E-03   8.54112E-04   7.89818E-04
 4.35000E+01               4.35656E-05   1.86395E-03   8.41292E-04   7.54633E-04
 4.45000E+01               4.22165E-05   1.85628E-03   8.27540E-04   7.16902E-04
 4.55000E+01               4.07957E-05   1.84817E-03   8.12990E-04   6.77000E-04
 4.65000E+01               3.93197E-05   1.83970E-03   7.97802E-04   6.35366E-04
 4.75000E+01               3.78064E-05   1.83098E-03   7.82155E-04   5.92490E-04
 4.85000E+01               3.62742E-05   1.82209E-03   7.66239E-04   5.48895E-04
 4.95000E+01               3.47419E-05   1.81317E-03   7.50247E-04   5.05112E-04
 5.05000E+01               3.32276E-05   1.80430E-03   7.34373E-04   4.61667E-04
 5.15000E+01               3.17479E-05   1.79560E-03   7.18799E-04   4.19059E-04
 5.25000E+01               3.03181E-05   1.78717E-03   7.03693E-04   3.77745E-04
 5.35000E+01               2.89511E-05   1.77907E-03   6.89204E-04   3.38127E-04
 5.45000E+01               2.76579E-05   1.77138E-03   6.75455E-04   3.00545E-04
 5.55000E+01               2.64467E-05   1.76417E-03   6.62546E-04   2.65267E-04
 5.65000E+01               2.53234E-05   1.75746E-03   6.50551E-04   2.32490E-04
 5.75000E+01               2.42917E-05   1.75129E-03   6.39515E-04   2.02339E-04
 5.85000E+01               2.33530E-05   1.74567E-03   6.29461E-04   1.74874E-04
 5.95000E+01               2.25067E-05   1.74060E-03   6.20388E-04   1.50091E-04
 6.05000E+01               2.17506E-05   1.73606E-03   6.12277E-04   1.27936E-04
 6.15000E+01               2.10811E-05   1.73204E-03   6.05091E-04   1.08309E-04
 6.25000E+01               2.04933E-05   1.72851E-03   5.98781E-04   9.10748E-05
 6.35000E+01               1.99817E-05   1.72544E-03   5.93287E-04   7.60712E-05
 6.45000E+01               1.95401E-05   1.72279E-03   5.88545E-04   6.31196E-05
 6.55000E+01               1.91619E-05   1.72052E-03   5.84485E-04   5.20312E-05
 6.65000E+01               1.88408E-05   1.71859E-03   5.81037E-04   4.26141E-05
 6.75000E+01               1.85701E-05   1.71696E-03   5.78132E-04   3.46792E-05
 6.85000E+01               1.83438E-05   1.71560E-03   5.75703E-04   2.80445E-05
 6.95000E+01               1.81559E-05   1.71448E-03   5.73687E-04   2.25386E-05
 7.05000E+01               1.80012E-05   1.71355E-03   5.72026E-04   1.80029E-05
 7.15000E+01               1.78746E-05   1.71279E-03   5.70668E-04   1.42934E-05
 7.25000E+01               1.77717E-05   1.71217E-03   5.69565E-04   1.12809E-05
 7.35000E+01               1.76888E-05   1.71167E-03   5.68676E-04   8.85125E-06
 7.45000E+01               1.76224E-05   1.71128E-03   5.67963E-04   6.90489E-06
 7.55000E+01               1.75695E-05   1.71096E-03   5.67396E-04   5.35598E-06
 7.65000E+01               1.75276E-05   1.71071E-03   5.66948E-04   4.13132E-06
 7.75000E+01               1.74948E-05   1.71051E-03   5.66596E-04   3.16917E-06
 7.85000E+01               1.74691E-05   1.71036E-03   5.66321E-04   2.41794E-06
 7.95000E+01               1.74492E-05   1.71024E-03   5.66107E-04   1.83495E-06
 8.05000E+01               1.74339E-05   1.71015E-03   5.65943E-04   1.38523E-06
 8.15000E+01               1.74221E-05   1.71007E-03   5.65816E-04   1.04034E-06
 8.25000E+01               1.74131E-05   1.71002E-03   5.65720E-04   7.77347E-07
 8.35000E+01               1.74063E-05   1.70998E-03   5.65647E-04   5.77938E-07
 8.45000E+01               1.74011E-05   1.70995E-03   5.65592E-04   4.27570E-07
 8.55000E+01               1.73973E-05   1.70993E-03   5.65551E-04   3.14795E-07
 8.65000E+01               1.73944E-05   1.70991E-03   5.65520E-04   2.30663E-07
 8.75000E+01               1.73923E-05   1.70990E-03   5.65497E-04   1.68225E-07
 8.85000E+01               1.73907E-05   1.70989E-03   5.65480E-04   1.22122E-07
 8.95000E+01               1.73895E-05   1.70988E-03   5.65468E-04   8.82528E-08
 9.05000E+01               1.73887E-05   1.70987E-03   5.65459E-04   6.34921E-08
 9.15000E+01               1.73881E-05   1.70987E-03   5.65452E-04   4.54780E-08
 9.25000E+01               1.73876E-05   1.70987E-03   5.65447E-04   3.24342E-08
 9.35000E+01               1.73873E-05   1.70987E-03   5.65444E-04   2.30333E-08
 9.45000E+01               1.73871E-05   1.70986E-03   5.65441E-04   1.62888E-08
 9.55000E+01               1.73869E-05   1.70986E-03   5.65440E-04   1.14718E-08
 9.65000E+01               1.73868E-05   1.70986E-03   5.65438E-04   8.04661E-09
 9.75000E+01               1.73867E-05   1.70986E-03   5.65437E-04   5.62160E-09
 9.85000E+01               1.73867E-05   1.70986E-03   5.65437E-04   3.91239E-09
 9.95000E+01               1.73866E-05   1.70986E-03   5.65436E-04   2.73006E-09
