# Units: Mol/kgw
 TITLE = " Years"
VARIABLES = "X (meters)", "H+        ", "HCO3-     ", "Ca++      ", "Tracer    ", "
 ZONE F=POINT,I=         100
 5.00000E-01               9.66441E-04   1.00000E-03   1.67807E-05   9.99999E-04
 1.50000E+00               9.66419E-04   1.00002E-03   1.67997E-05   9.99993E-04
 2.50000E+00               9.66305E-04   1.00013E-03   1.69021E-05   9.99967E-04
 3.50000E+00               9.65809E-04   1.00061E-03   1.73556E-05   9.99872E-04
 4.50000E+00               9.63907E-04   1.00246E-03   1.91305E-05   9.99590E-04
 5.50000E+00               9.57207E-04   1.00903E-03   2.55101E-05   9.98875E-04
 6.50000E+00               9.34913E-04   1.03102E-03   4.70877E-05   9.97280E-04
 7.50000E+00               8.63531E-04   1.10181E-03   1.17041E-04   9.94099E-04
 8.50000E+00               6.34527E-04   1.32973E-03   3.43456E-04   9.88332E-04
 9.50000E+00               5.89623E-05   1.90350E-03   9.14706E-04   9.78723E-04
 1.05000E+01               5.24074E-05   1.90727E-03   9.14589E-04   9.63864E-04
 1.15000E+01               5.15791E-05   1.90408E-03   9.05766E-04   9.42371E-04
 1.25000E+01               5.04958E-05   1.89968E-03   8.93704E-04   9.13096E-04
 1.35000E+01               4.91000E-05   1.89400E-03   8.78144E-04   8.75333E-04
 1.45000E+01               4.73887E-05   1.88704E-03   8.59041E-04   8.28979E-04
 1.55000E+01               4.53842E-05   1.87886E-03   8.36629E-04   7.74602E-04
 1.65000E+01               4.31318E-05   1.86966E-03   8.11408E-04   7.13418E-04
 1.75000E+01               4.06960E-05   1.85969E-03   7.84097E-04   6.47170E-04
 1.85000E+01               3.81527E-05   1.84927E-03   7.55556E-04   5.77944E-04
 1.95000E+01               3.55817E-05   1.83874E-03   7.26701E-04   5.07956E-04
 2.05000E+01               3.30591E-05   1.82841E-03   6.98411E-04   4.39334E-04
 2.15000E+01               3.06518E-05   1.81858E-03   6.71460E-04   3.73953E-04
 2.25000E+01               2.84132E-05   1.80946E-03   6.46466E-04   3.13304E-04
 2.35000E+01               2.63815E-05   1.80122E-03   6.23862E-04   2.58439E-04
 2.45000E+01               2.45794E-05   1.79395E-03   6.03896E-04   2.09960E-04
 2.55000E+01               2.30155E-05   1.78767E-03   5.86647E-04   1.68062E-04
 2.65000E+01               2.16861E-05   1.78236E-03   5.72052E-04   1.32598E-04
 2.75000E+01               2.05782E-05   1.77796E-03   5.59944E-04   1.03165E-04
 2.85000E+01               1.96722E-05   1.77437E-03   5.50083E-04   7.91870E-05
 2.95000E+01               1.89445E-05   1.77151E-03   5.42192E-04   5.99928E-05
 3.05000E+01               1.83700E-05   1.76925E-03   5.35981E-04   4.48815E-05
 3.15000E+01               1.79236E-05   1.76751E-03   5.31169E-04   3.31708E-05
 3.25000E+01               1.75822E-05   1.76617E-03   5.27496E-04   2.42303E-05
 3.35000E+01               1.73248E-05   1.76517E-03   5.24732E-04   1.75010E-05
 3.45000E+01               1.71334E-05   1.76443E-03   5.22680E-04   1.25042E-05
 3.55000E+01               1.69930E-05   1.76388E-03   5.21175E-04   8.84121E-06
 3.65000E+01               1.68912E-05   1.76349E-03   5.20086E-04   6.18877E-06
 3.75000E+01               1.68184E-05   1.76320E-03   5.19307E-04   4.29041E-06
 3.85000E+01               1.67668E-05   1.76300E-03   5.18755E-04   2.94683E-06
 3.95000E+01               1.67306E-05   1.76286E-03   5.18369E-04   2.00598E-06
 4.05000E+01               1.67056E-05   1.76277E-03   5.18101E-04   1.35382E-06
 4.15000E+01               1.66884E-05   1.76270E-03   5.17917E-04   9.06141E-07
 4.25000E+01               1.66766E-05   1.76265E-03   5.17792E-04   6.01687E-07
 4.35000E+01               1.66688E-05   1.76262E-03   5.17708E-04   3.96474E-07
 4.45000E+01               1.66635E-05   1.76260E-03   5.17651E-04   2.59328E-07
 4.55000E+01               1.66600E-05   1.76259E-03   5.17614E-04   1.68421E-07
 4.65000E+01               1.66577E-05   1.76258E-03   5.17590E-04   1.08635E-07
 4.75000E+01               1.66562E-05   1.76258E-03   5.17573E-04   6.96110E-08
 4.85000E+01               1.66552E-05   1.76257E-03   5.17563E-04   4.43225E-08
 4.95000E+01               1.66546E-05   1.76257E-03   5.17556E-04   2.80485E-08
 5.05000E+01               1.66542E-05   1.76257E-03   5.17552E-04   1.76454E-08
 5.15000E+01               1.66539E-05   1.76257E-03   5.17549E-04   1.10377E-08
 5.25000E+01               1.66538E-05   1.76257E-03   5.17548E-04   6.86657E-09
 5.35000E+01               1.66537E-05   1.76257E-03   5.17547E-04   4.24913E-09
 5.45000E+01               1.66536E-05   1.76257E-03   5.17546E-04   2.61602E-09
 5.55000E+01               1.66536E-05   1.76257E-03   5.17546E-04   1.60265E-09
 5.65000E+01               1.66535E-05   1.76257E-03   5.17545E-04   9.77161E-10
 5.75000E+01               1.66535E-05   1.76257E-03   5.17545E-04   5.93057E-10
 5.85000E+01               1.66535E-05   1.76257E-03   5.17545E-04   3.58342E-10
 5.95000E+01               1.66535E-05   1.76257E-03   5.17545E-04   2.15593E-10
 6.05000E+01               1.66535E-05   1.76257E-03   5.17545E-04   1.29172E-10
 6.15000E+01               1.66535E-05   1.76257E-03   5.17545E-04   7.70840E-11
 6.25000E+01               1.66535E-05   1.76257E-03   5.17545E-04   4.58221E-11
 6.35000E+01               1.66535E-05   1.76257E-03   5.17545E-04   2.71368E-11
 6.45000E+01               1.66535E-05   1.76257E-03   5.17545E-04   1.60128E-11
 6.55000E+01               1.66535E-05   1.76257E-03   5.17545E-04   9.41573E-12
 6.65000E+01               1.66535E-05   1.76257E-03   5.17545E-04   5.51780E-12
 6.75000E+01               1.66535E-05   1.76257E-03   5.17545E-04   3.22294E-12
 6.85000E+01               1.66535E-05   1.76257E-03   5.17545E-04   1.87654E-12
 6.95000E+01               1.66535E-05   1.76257E-03   5.17545E-04   1.08924E-12
 7.05000E+01               1.66535E-05   1.76257E-03   5.17545E-04   6.30372E-13
 7.15000E+01               1.66535E-05   1.76257E-03   5.17545E-04   3.63760E-13
 7.25000E+01               1.66535E-05   1.76257E-03   5.17545E-04   2.09323E-13
 7.35000E+01               1.66535E-05   1.76257E-03   5.17545E-04   1.20127E-13
 7.45000E+01               1.66535E-05   1.76257E-03   5.17545E-04   6.87581E-14
 7.55000E+01               1.66535E-05   1.76257E-03   5.17545E-04   3.92553E-14
 7.65000E+01               1.66535E-05   1.76257E-03   5.17545E-04   2.23563E-14
 7.75000E+01               1.66535E-05   1.76257E-03   5.17545E-04   1.27016E-14
 7.85000E+01               1.66535E-05   1.76257E-03   5.17545E-04   7.19960E-15
 7.95000E+01               1.66535E-05   1.76257E-03   5.17545E-04   4.07171E-15
 8.05000E+01               1.66535E-05   1.76257E-03   5.17545E-04   2.29770E-15
 8.15000E+01               1.66535E-05   1.76257E-03   5.17545E-04   1.29385E-15
 8.25000E+01               1.66535E-05   1.76257E-03   5.17545E-04   7.27077E-16
 8.35000E+01               1.66535E-05   1.76257E-03   5.17545E-04   4.07760E-16
 8.45000E+01               1.66535E-05   1.76257E-03   5.17545E-04   2.28235E-16
 8.55000E+01               1.66535E-05   1.76257E-03   5.17545E-04   1.27508E-16
 8.65000E+01               1.66535E-05   1.76257E-03   5.17545E-04   7.11037E-17
 8.75000E+01               1.66535E-05   1.76257E-03   5.17545E-04   3.95795E-17
 8.85000E+01               1.66535E-05   1.76257E-03   5.17545E-04   2.19935E-17
 8.95000E+01               1.66535E-05   1.76257E-03   5.17545E-04   1.22006E-17
 9.05000E+01               1.66535E-05   1.76257E-03   5.17545E-04   6.75705E-18
 9.15000E+01               1.66535E-05   1.76257E-03   5.17545E-04   3.73625E-18
 9.25000E+01               1.66535E-05   1.76257E-03   5.17545E-04   2.06272E-18
 9.35000E+01               1.66535E-05   1.76257E-03   5.17545E-04   1.13706E-18
 9.45000E+01               1.66535E-05   1.76257E-03   5.17545E-04   6.25877E-19
 9.55000E+01               1.66535E-05   1.76257E-03   5.17545E-04   3.44009E-19
 9.65000E+01               1.66535E-05   1.76257E-03   5.17545E-04   1.88818E-19
 9.75000E+01               1.66535E-05   1.76257E-03   5.17545E-04   1.03497E-19
 9.85000E+01               1.66535E-05   1.76257E-03   5.17545E-04   5.66581E-20
 9.95000E+01               1.66535E-05   1.76257E-03   5.17545E-04   3.12115E-20
