# Units: Mol/kgw
 TITLE = " Years"
VARIABLES = "X (meters)", "H+        ", "HCO3-     ", "Ca++      ", "Tracer    ", "
 ZONE F=POINT,I=         100
 5.00000E-01               9.66444E-04   1.00000E-03   1.67780E-05   1.00000E-03
 1.50000E+00               9.66444E-04   1.00000E-03   1.67780E-05   1.00000E-03
 2.50000E+00               9.66444E-04   1.00000E-03   1.67780E-05   1.00000E-03
 3.50000E+00               9.66444E-04   1.00000E-03   1.67780E-05   1.00000E-03
 4.50000E+00               9.66444E-04   1.00000E-03   1.67780E-05   1.00000E-03
 5.50000E+00               9.66444E-04   1.00000E-03   1.67780E-05   1.00000E-03
 6.50000E+00               9.66444E-04   1.00000E-03   1.67780E-05   1.00000E-03
 7.50000E+00               9.66444E-04   1.00000E-03   1.67780E-05   1.00000E-03
 8.50000E+00               9.66444E-04   1.00000E-03   1.67780E-05   1.00000E-03
 9.50000E+00               9.66444E-04   1.00000E-03   1.67781E-05   1.00000E-03
 1.05000E+01               9.66444E-04   1.00000E-03   1.67782E-05   1.00000E-03
 1.15000E+01               9.66443E-04   1.00000E-03   1.67788E-05   1.00000E-03
 1.25000E+01               9.66441E-04   1.00000E-03   1.67808E-05   1.00000E-03
 1.35000E+01               9.66434E-04   1.00001E-03   1.67878E-05   1.00000E-03
 1.45000E+01               9.66410E-04   1.00003E-03   1.68112E-05   9.99999E-04
 1.55000E+01               9.66330E-04   1.00011E-03   1.68905E-05   9.99998E-04
 1.65000E+01               9.66062E-04   1.00038E-03   1.71579E-05   9.99995E-04
 1.75000E+01               9.65160E-04   1.00128E-03   1.80574E-05   9.99989E-04
 1.85000E+01               9.62129E-04   1.00431E-03   2.10826E-05   9.99977E-04
 1.95000E+01               9.51917E-04   1.01452E-03   3.12844E-05   9.99955E-04
 2.05000E+01               9.17939E-04   1.04849E-03   6.52451E-05   9.99915E-04
 2.15000E+01               8.04094E-04   1.16232E-03   1.79058E-04   9.99844E-04
 2.25000E+01               4.39917E-04   1.52647E-03   5.43180E-04   9.99723E-04
 2.35000E+01               5.61454E-05   1.91021E-03   9.26862E-04   9.99522E-04
 2.45000E+01               5.36970E-05   1.91260E-03   9.29165E-04   9.99199E-04
 2.55000E+01               5.36651E-05   1.91253E-03   9.28971E-04   9.98695E-04
 2.65000E+01               5.36370E-05   1.91242E-03   9.28655E-04   9.97928E-04
 2.75000E+01               5.35953E-05   1.91225E-03   9.28186E-04   9.96792E-04
 2.85000E+01               5.35351E-05   1.91200E-03   9.27510E-04   9.95151E-04
 2.95000E+01               5.34501E-05   1.91165E-03   9.26555E-04   9.92837E-04
 3.05000E+01               5.33329E-05   1.91117E-03   9.25241E-04   9.89648E-04
 3.15000E+01               5.31749E-05   1.91053E-03   9.23469E-04   9.85351E-04
 3.25000E+01               5.29664E-05   1.90967E-03   9.21133E-04   9.79683E-04
 3.35000E+01               5.26968E-05   1.90857E-03   9.18114E-04   9.72360E-04
 3.45000E+01               5.23553E-05   1.90718E-03   9.14291E-04   9.63085E-04
 3.55000E+01               5.19309E-05   1.90544E-03   9.09541E-04   9.51562E-04
 3.65000E+01               5.14132E-05   1.90333E-03   9.03748E-04   9.37508E-04
 3.75000E+01               5.07931E-05   1.90080E-03   8.96809E-04   9.20673E-04
 3.85000E+01               5.00631E-05   1.89782E-03   8.88640E-04   9.00854E-04
 3.95000E+01               4.92183E-05   1.89437E-03   8.79182E-04   8.77910E-04
 4.05000E+01               4.82562E-05   1.89044E-03   8.68410E-04   8.51776E-04
 4.15000E+01               4.71781E-05   1.88603E-03   8.56331E-04   8.22474E-04
 4.25000E+01               4.59880E-05   1.88116E-03   8.42992E-04   7.90117E-04
 4.35000E+01               4.46938E-05   1.87586E-03   8.28478E-04   7.54912E-04
 4.45000E+01               4.33064E-05   1.87018E-03   8.12910E-04   7.17152E-04
 4.55000E+01               4.18395E-05   1.86417E-03   7.96443E-04   6.77212E-04
 4.65000E+01               4.03091E-05   1.85790E-03   7.79259E-04   6.35535E-04
 4.75000E+01               3.87330E-05   1.85144E-03   7.61562E-04   5.92611E-04
 4.85000E+01               3.71302E-05   1.84487E-03   7.43566E-04   5.48963E-04
 4.95000E+01               3.55197E-05   1.83827E-03   7.25493E-04   5.05127E-04
 5.05000E+01               3.39204E-05   1.83173E-03   7.07561E-04   4.61630E-04
 5.15000E+01               3.23502E-05   1.82531E-03   6.89977E-04   4.18972E-04
 5.25000E+01               3.08256E-05   1.81909E-03   6.72930E-04   3.77613E-04
 5.35000E+01               2.93610E-05   1.81313E-03   6.56588E-04   3.37956E-04
 5.45000E+01               2.79688E-05   1.80748E-03   6.41090E-04   3.00341E-04
 5.55000E+01               2.66589E-05   1.80218E-03   6.26547E-04   2.65037E-04
 5.65000E+01               2.54388E-05   1.79726E-03   6.13041E-04   2.32241E-04
 5.75000E+01               2.43134E-05   1.79274E-03   6.00623E-04   2.02078E-04
 5.85000E+01               2.32854E-05   1.78862E-03   5.89316E-04   1.74608E-04
 5.95000E+01               2.23552E-05   1.78491E-03   5.79119E-04   1.49827E-04
 6.05000E+01               2.15214E-05   1.78160E-03   5.70008E-04   1.27679E-04
 6.15000E+01               2.07807E-05   1.77867E-03   5.61940E-04   1.08063E-04
 6.25000E+01               2.01286E-05   1.77610E-03   5.54860E-04   9.08423E-05
 6.35000E+01               1.95597E-05   1.77386E-03   5.48700E-04   7.58555E-05
 6.45000E+01               1.90675E-05   1.77193E-03   5.43385E-04   6.29222E-05
 6.55000E+01               1.86453E-05   1.77028E-03   5.38836E-04   5.18529E-05
 6.65000E+01               1.82861E-05   1.76888E-03   5.34976E-04   4.24551E-05
 6.75000E+01               1.79830E-05   1.76770E-03   5.31724E-04   3.45391E-05
 6.85000E+01               1.77293E-05   1.76672E-03   5.29007E-04   2.79224E-05
 6.95000E+01               1.75185E-05   1.76590E-03   5.26753E-04   2.24333E-05
 7.05000E+01               1.73447E-05   1.76523E-03   5.24897E-04   1.79131E-05
 7.15000E+01               1.72024E-05   1.76468E-03   5.23380E-04   1.42175E-05
 7.25000E+01               1.70868E-05   1.76423E-03   5.22148E-04   1.12174E-05
 7.35000E+01               1.69936E-05   1.76387E-03   5.21156E-04   8.79857E-06
 7.45000E+01               1.69188E-05   1.76358E-03   5.20361E-04   6.86160E-06
 7.55000E+01               1.68593E-05   1.76336E-03   5.19728E-04   5.32071E-06
 7.65000E+01               1.68123E-05   1.76317E-03   5.19228E-04   4.10283E-06
 7.75000E+01               1.67753E-05   1.76303E-03   5.18836E-04   3.14634E-06
 7.85000E+01               1.67464E-05   1.76292E-03   5.18530E-04   2.39979E-06
 7.95000E+01               1.67240E-05   1.76284E-03   5.18292E-04   1.82064E-06
 8.05000E+01               1.67067E-05   1.76277E-03   5.18109E-04   1.37403E-06
 8.15000E+01               1.66935E-05   1.76272E-03   5.17968E-04   1.03164E-06
 8.25000E+01               1.66834E-05   1.76268E-03   5.17861E-04   7.70636E-07
 8.35000E+01               1.66757E-05   1.76265E-03   5.17780E-04   5.72799E-07
 8.45000E+01               1.66699E-05   1.76263E-03   5.17719E-04   4.23663E-07
 8.55000E+01               1.66656E-05   1.76261E-03   5.17673E-04   3.11845E-07
 8.65000E+01               1.66624E-05   1.76260E-03   5.17639E-04   2.28450E-07
 8.75000E+01               1.66600E-05   1.76259E-03   5.17613E-04   1.66575E-07
 8.85000E+01               1.66582E-05   1.76258E-03   5.17595E-04   1.20902E-07
 8.95000E+01               1.66569E-05   1.76258E-03   5.17581E-04   8.73549E-08
 9.05000E+01               1.66559E-05   1.76257E-03   5.17571E-04   6.28360E-08
 9.15000E+01               1.66553E-05   1.76257E-03   5.17563E-04   4.50015E-08
 9.25000E+01               1.66548E-05   1.76257E-03   5.17558E-04   3.20903E-08
 9.35000E+01               1.66544E-05   1.76257E-03   5.17554E-04   2.27866E-08
 9.45000E+01               1.66541E-05   1.76257E-03   5.17552E-04   1.61130E-08
 9.55000E+01               1.66539E-05   1.76257E-03   5.17550E-04   1.13472E-08
 9.65000E+01               1.66538E-05   1.76257E-03   5.17548E-04   7.95883E-09
 9.75000E+01               1.66537E-05   1.76257E-03   5.17547E-04   5.56014E-09
 9.85000E+01               1.66537E-05   1.76257E-03   5.17546E-04   3.86961E-09
 9.95000E+01               1.66536E-05   1.76257E-03   5.17546E-04   2.70027E-09
