# Units: Mol/kgw
 TITLE = " Years"
VARIABLES = "X (meters)", "Tritium   ", "Daughter  ", "
 ZONE F=POINT,I=         100
 5.00000E-01               9.57790E-04   4.22105E-05
 1.50000E+00               9.06041E-04   9.39586E-05
 2.50000E+00               8.57277E-04   1.42723E-04
 3.50000E+00               8.11092E-04   1.88908E-04
 4.50000E+00               7.67382E-04   2.32618E-04
 5.50000E+00               7.26017E-04   2.73983E-04
 6.50000E+00               6.86910E-04   3.13090E-04
 7.50000E+00               6.50016E-04   3.49984E-04
 8.50000E+00               6.15239E-04   3.84761E-04
 9.50000E+00               5.82346E-04   4.17654E-04
 1.05000E+01               5.51070E-04   4.48930E-04
 1.15000E+01               5.21304E-04   4.78696E-04
 1.25000E+01               4.93110E-04   5.06890E-04
 1.35000E+01               4.66527E-04   5.33473E-04
 1.45000E+01               4.41452E-04   5.58548E-04
 1.55000E+01               4.17729E-04   5.82271E-04
 1.65000E+01               3.95253E-04   6.04747E-04
 1.75000E+01               3.73973E-04   6.26027E-04
 1.85000E+01               3.53839E-04   6.46161E-04
 1.95000E+01               3.34797E-04   6.65203E-04
 2.05000E+01               3.16798E-04   6.83202E-04
 2.15000E+01               2.99782E-04   7.00218E-04
 2.25000E+01               2.83678E-04   7.16322E-04
 2.35000E+01               2.68415E-04   7.31585E-04
 2.45000E+01               2.53945E-04   7.46055E-04
 2.55000E+01               2.40232E-04   7.59768E-04
 2.65000E+01               2.27248E-04   7.72752E-04
 2.75000E+01               2.14966E-04   7.85034E-04
 2.85000E+01               2.03359E-04   7.96641E-04
 2.95000E+01               1.92397E-04   8.07605E-04
 3.05000E+01               1.82039E-04   8.17960E-04
 3.15000E+01               1.72242E-04   8.27751E-04
 3.25000E+01               1.62964E-04   8.37026E-04
 3.35000E+01               1.54170E-04   8.45839E-04
 3.45000E+01               1.45836E-04   8.54224E-04
 3.55000E+01               1.37945E-04   8.62148E-04
 3.65000E+01               1.30477E-04   8.69498E-04
 3.75000E+01               1.23411E-04   8.76187E-04
 3.85000E+01               1.16724E-04   8.82448E-04
 3.95000E+01               1.10412E-04   8.89068E-04
 4.05000E+01               1.04502E-04   8.97056E-04
 4.15000E+01               9.90405E-05   9.06360E-04
 4.25000E+01               9.40237E-05   9.14096E-04
 4.35000E+01               8.92919E-05   9.16110E-04
 4.45000E+01               8.44325E-05   9.15251E-04
 4.55000E+01               7.87885E-05   9.07756E-04
 4.65000E+01               7.16346E-05   8.74403E-04
 4.75000E+01               6.24879E-05   7.99209E-04
 4.85000E+01               5.14186E-05   6.84454E-04
 4.95000E+01               3.91796E-05   5.39720E-04
 5.05000E+01               2.70474E-05   3.84098E-04
 5.15000E+01               1.64141E-05   2.40036E-04
 5.25000E+01               8.32126E-06   1.25806E-04
 5.35000E+01               3.17192E-06   5.03974E-05
 5.45000E+01               7.75777E-07   1.30494E-05
 5.55000E+01               1.48883E-07   2.49730E-06
 5.65000E+01               2.95129E-08   4.96145E-07
 5.75000E+01               5.67191E-09   9.53994E-08
 5.85000E+01               1.05119E-09   1.76497E-08
 5.95000E+01               1.88423E-10   3.11677E-09
 6.05000E+01               3.57091E-11   5.20975E-10
 6.15000E+01               1.00973E-11   1.20224E-10
 6.25000E+01               2.73109E-12   2.73060E-11
 6.35000E+01               5.60797E-13   5.75162E-12
 6.45000E+01               1.17347E-13   1.28562E-12
 6.55000E+01               2.55368E-14   2.92561E-13
 6.65000E+01               5.50768E-15   6.64271E-14
 6.75000E+01               1.18867E-15   1.50189E-14
 6.85000E+01               2.55769E-16   3.39793E-15
 6.95000E+01               5.51168E-17   7.67839E-16
 7.05000E+01               1.18574E-17   1.73355E-16
 7.15000E+01               2.55290E-18   3.91785E-17
 7.25000E+01               5.49272E-19   8.83137E-18
 7.35000E+01               1.18176E-19   1.99664E-18
 7.45000E+01               2.54310E-20   4.49477E-19
 7.55000E+01               5.43239E-21   9.93815E-20
 7.65000E+01               1.17135E-21   2.72245E-20
 7.75000E+01               6.76598E-22   2.01648E-20
 7.85000E+01               6.44439E-22   1.97324E-20
 7.95000E+01               6.42570E-22   1.97058E-20
 8.05000E+01               6.42459E-22   1.97041E-20
 8.15000E+01               6.42452E-22   1.97040E-20
 8.25000E+01               6.42452E-22   1.97040E-20
 8.35000E+01               6.42452E-22   1.97040E-20
 8.45000E+01               6.42452E-22   1.97040E-20
 8.55000E+01               6.42452E-22   1.97040E-20
 8.65000E+01               6.42452E-22   1.97040E-20
 8.75000E+01               6.42452E-22   1.97040E-20
 8.85000E+01               6.42452E-22   1.97040E-20
 8.95000E+01               6.42452E-22   1.97040E-20
 9.05000E+01               6.42452E-22   1.97040E-20
 9.15000E+01               6.42452E-22   1.97040E-20
 9.25000E+01               6.42452E-22   1.97040E-20
 9.35000E+01               6.42452E-22   1.97040E-20
 9.45000E+01               6.42452E-22   1.97040E-20
 9.55000E+01               6.42452E-22   1.97040E-20
 9.65000E+01               6.42452E-22   1.97040E-20
 9.75000E+01               6.42452E-22   1.97040E-20
 9.85000E+01               6.42452E-22   1.97040E-20
 9.95000E+01               6.42452E-22   1.97040E-20
