# Units: Mol/kgw
 TITLE = " Years"
VARIABLES = "X (meters) ", "A            ", "
 ZONE F=POINT,I=         100
 5.00000E-01               1.00293346E-03
 1.50000E+00               1.00293346E-03
 2.50000E+00               1.00293346E-03
 3.50000E+00               1.00293346E-03
 4.50000E+00               1.00293346E-03
 5.50000E+00               1.00293346E-03
 6.50000E+00               1.00293346E-03
 7.50000E+00               1.00293346E-03
 8.50000E+00               1.00293346E-03
 9.50000E+00               1.00293346E-03
 1.05000E+01               1.00293346E-03
 1.15000E+01               1.00293346E-03
 1.25000E+01               1.00293346E-03
 1.35000E+01               1.00293346E-03
 1.45000E+01               1.00293346E-03
 1.55000E+01               1.00293346E-03
 1.65000E+01               1.00293346E-03
 1.75000E+01               1.00293346E-03
 1.85000E+01               1.00293346E-03
 1.95000E+01               1.00293346E-03
 2.05000E+01               1.00293346E-03
 2.15000E+01               1.00293346E-03
 2.25000E+01               1.00293346E-03
 2.35000E+01               1.00293346E-03
 2.45000E+01               1.00293346E-03
 2.55000E+01               1.00293346E-03
 2.65000E+01               1.00293346E-03
 2.75000E+01               1.00293346E-03
 2.85000E+01               1.00293346E-03
 2.95000E+01               1.00293346E-03
 3.05000E+01               1.00293346E-03
 3.15000E+01               1.00293346E-03
 3.25000E+01               1.00293346E-03
 3.35000E+01               1.00293346E-03
 3.45000E+01               1.00293346E-03
 3.55000E+01               1.00293346E-03
 3.65000E+01               1.00293345E-03
 3.75000E+01               1.00293338E-03
 3.85000E+01               1.00293311E-03
 3.95000E+01               1.00293185E-03
 4.05000E+01               1.00292615E-03
 4.15000E+01               1.00290016E-03
 4.25000E+01               1.00278107E-03
 4.35000E+01               1.00223154E-03
 4.45000E+01               9.99678331E-04
 4.55000E+01               9.87709769E-04
 4.65000E+01               9.46821113E-04
 4.75000E+01               8.65183805E-04
 4.85000E+01               7.41901555E-04
 4.95000E+01               5.86299267E-04
 5.05000E+01               4.18210111E-04
 5.15000E+01               2.61877807E-04
 5.25000E+01               1.37587172E-04
 5.35000E+01               5.53273925E-05
 5.45000E+01               1.43195216E-05
 5.55000E+01               2.85760341E-06
 5.65000E+01               5.80553919E-07
 5.75000E+01               1.15586711E-07
 5.85000E+01               2.24141602E-08
 5.95000E+01               4.27272308E-09
 6.05000E+01               8.67999255E-10
 6.15000E+01               2.36855556E-10
 6.25000E+01               1.01133173E-10
 6.35000E+01               5.49848509E-11
 6.45000E+01               3.16599344E-11
 6.55000E+01               1.03698234E-11
 6.65000E+01               2.35818102E-12
 6.75000E+01               5.08439002E-13
 6.85000E+01               1.17677742E-13
 6.95000E+01               2.60019560E-14
 7.05000E+01               6.04388640E-15
 7.15000E+01               1.33475323E-15
 7.25000E+01               3.11649978E-16
 7.35000E+01               6.88408145E-17
 7.45000E+01               1.61536442E-17
 7.55000E+01               3.57278730E-18
 7.65000E+01               8.26974657E-19
 7.75000E+01               2.21623824E-19
 7.85000E+01               1.75726455E-19
 7.95000E+01               1.73071598E-19
 8.05000E+01               1.72911096E-19
 8.15000E+01               1.72901252E-19
 8.25000E+01               1.72900643E-19
 8.35000E+01               1.72900605E-19
 8.45000E+01               1.72900602E-19
 8.55000E+01               1.72900602E-19
 8.65000E+01               1.72900602E-19
 8.75000E+01               1.72900602E-19
 8.85000E+01               1.72900602E-19
 8.95000E+01               1.72900602E-19
 9.05000E+01               1.72900602E-19
 9.15000E+01               1.72900602E-19
 9.25000E+01               1.72900602E-19
 9.35000E+01               1.72900602E-19
 9.45000E+01               1.72900602E-19
 9.55000E+01               1.72900602E-19
 9.65000E+01               1.72900602E-19
 9.75000E+01               1.72900602E-19
 9.85000E+01               1.72900602E-19
 9.95000E+01               1.72900602E-19
