# Units: Mol/kgw
 TITLE = " Years"
VARIABLES = "X (meters) ", "A            ", "
 ZONE F=POINT,I=         100
 5.00000E-01               1.00293346E-03
 1.50000E+00               1.00293346E-03
 2.50000E+00               1.00293346E-03
 3.50000E+00               1.00293346E-03
 4.50000E+00               1.00293346E-03
 5.50000E+00               1.00293346E-03
 6.50000E+00               1.00293346E-03
 7.50000E+00               1.00293346E-03
 8.50000E+00               1.00293346E-03
 9.50000E+00               1.00293346E-03
 1.05000E+01               1.00293346E-03
 1.15000E+01               1.00293346E-03
 1.25000E+01               1.00293346E-03
 1.35000E+01               1.00293346E-03
 1.45000E+01               1.00293346E-03
 1.55000E+01               1.00293346E-03
 1.65000E+01               1.00293346E-03
 1.75000E+01               1.00293346E-03
 1.85000E+01               1.00293346E-03
 1.95000E+01               1.00293346E-03
 2.05000E+01               1.00293346E-03
 2.15000E+01               1.00293346E-03
 2.25000E+01               1.00293346E-03
 2.35000E+01               1.00293346E-03
 2.45000E+01               1.00293346E-03
 2.55000E+01               1.00293346E-03
 2.65000E+01               1.00293346E-03
 2.75000E+01               1.00293346E-03
 2.85000E+01               1.00293346E-03
 2.95000E+01               1.00293346E-03
 3.05000E+01               1.00293346E-03
 3.15000E+01               1.00293346E-03
 3.25000E+01               1.00293346E-03
 3.35000E+01               1.00293346E-03
 3.45000E+01               1.00293343E-03
 3.55000E+01               1.00293332E-03
 3.65000E+01               1.00293282E-03
 3.75000E+01               1.00293067E-03
 3.85000E+01               1.00292131E-03
 3.95000E+01               1.00288059E-03
 4.05000E+01               1.00270265E-03
 4.15000E+01               1.00192094E-03
 4.25000E+01               9.98482608E-04
 4.35000E+01               9.83405473E-04
 4.45000E+01               9.40547206E-04
 4.55000E+01               8.61312855E-04
 4.65000E+01               7.43352950E-04
 4.75000E+01               5.94779016E-04
 4.85000E+01               4.33256070E-04
 4.95000E+01               2.80798200E-04
 5.05000E+01               1.56397196E-04
 5.15000E+01               7.02051408E-05
 5.25000E+01               2.20476498E-05
 5.35000E+01               4.78122825E-06
 5.45000E+01               1.00097667E-06
 5.55000E+01               2.04472833E-07
 5.65000E+01               4.05430060E-08
 5.75000E+01               7.77893239E-09
 5.85000E+01               1.47895668E-09
 5.95000E+01               3.30225116E-10
 6.05000E+01               1.20496348E-10
 6.15000E+01               5.26250216E-11
 6.25000E+01               2.62189170E-11
 6.35000E+01               5.85663390E-12
 6.45000E+01               1.26440964E-12
 6.55000E+01               2.81263178E-13
 6.65000E+01               6.08812146E-14
 6.75000E+01               1.34836788E-14
 6.85000E+01               2.92911429E-15
 6.95000E+01               6.45882491E-16
 7.05000E+01               1.40936179E-16
 7.15000E+01               3.09448210E-17
 7.25000E+01               6.78777626E-18
 7.35000E+01               1.48440771E-18
 7.45000E+01               3.27498069E-19
 7.55000E+01               1.81529991E-19
 7.65000E+01               1.73432708E-19
 7.75000E+01               1.72933680E-19
 7.85000E+01               1.72902659E-19
 7.95000E+01               1.72900730E-19
 8.05000E+01               1.72900610E-19
 8.15000E+01               1.72900603E-19
 8.25000E+01               1.72900602E-19
 8.35000E+01               1.72900602E-19
 8.45000E+01               1.72900602E-19
 8.55000E+01               1.72900602E-19
 8.65000E+01               1.72900602E-19
 8.75000E+01               1.72900602E-19
 8.85000E+01               1.72900602E-19
 8.95000E+01               1.72900602E-19
 9.05000E+01               1.72900602E-19
 9.15000E+01               1.72900602E-19
 9.25000E+01               1.72900602E-19
 9.35000E+01               1.72900602E-19
 9.45000E+01               1.72900602E-19
 9.55000E+01               1.72900602E-19
 9.65000E+01               1.72900602E-19
 9.75000E+01               1.72900602E-19
 9.85000E+01               1.72900602E-19
 9.95000E+01               1.72900602E-19
