# Units: Mol/kgw
 TITLE = " Years"
VARIABLES = "X (meters)", "H+        ", "HCO3-     ", "Ca++      ", "Tracer    ", "
 ZONE F=POINT,I=         100
 5.00000E-01               9.66444E-04   1.00000E-03   1.67780E-05   1.00000E-03
 1.50000E+00               9.66444E-04   1.00000E-03   1.67780E-05   1.00000E-03
 2.50000E+00               9.66444E-04   1.00000E-03   1.67780E-05   1.00000E-03
 3.50000E+00               9.66444E-04   1.00000E-03   1.67780E-05   1.00000E-03
 4.50000E+00               9.66444E-04   1.00000E-03   1.67783E-05   1.00000E-03
 5.50000E+00               9.66436E-04   1.00001E-03   1.67856E-05   1.00000E-03
 6.50000E+00               9.66252E-04   1.00019E-03   1.69702E-05   1.00000E-03
 7.50000E+00               9.61438E-04   1.00500E-03   2.17832E-05   1.00000E-03
 8.50000E+00               8.53238E-04   1.11312E-03   1.29950E-04   1.00000E-03
 9.50000E+00               5.84432E-05   1.90730E-03   9.24639E-04   1.00000E-03
 1.05000E+01               5.37355E-05   1.91260E-03   9.29812E-04   1.00000E-03
 1.15000E+01               5.37688E-05   1.91320E-03   9.29885E-04   9.99997E-04
 1.25000E+01               5.37864E-05   1.91346E-03   9.29889E-04   9.99982E-04
 1.35000E+01               5.37866E-05   1.91352E-03   9.29837E-04   9.99900E-04
 1.45000E+01               5.37645E-05   1.91348E-03   9.29531E-04   9.99482E-04
 1.55000E+01               5.36577E-05   1.91316E-03   9.28222E-04   9.97440E-04
 1.65000E+01               5.31959E-05   1.91142E-03   9.22917E-04   9.87852E-04
 1.75000E+01               5.13560E-05   1.90393E-03   9.02351E-04   9.46685E-04
 1.85000E+01               4.66421E-05   1.88407E-03   8.50337E-04   8.21648E-04
 1.95000E+01               3.94227E-05   1.85362E-03   7.70196E-04   6.17728E-04
 2.05000E+01               3.12119E-05   1.81937E-03   6.78499E-04   3.83976E-04
 2.15000E+01               2.39222E-05   1.78971E-03   5.97381E-04   1.81410E-04
 2.25000E+01               1.90952E-05   1.77092E-03   5.44323E-04   5.49235E-05
 2.35000E+01               1.70398E-05   1.76347E-03   5.21938E-04   7.83081E-06
 2.45000E+01               1.67064E-05   1.76234E-03   5.18310E-04   9.95401E-07
 2.55000E+01               1.66646E-05   1.76220E-03   5.17855E-04   1.31371E-07
 2.65000E+01               1.66589E-05   1.76218E-03   5.17794E-04   1.68955E-08
 2.75000E+01               1.66582E-05   1.76218E-03   5.17786E-04   2.06846E-09
 2.85000E+01               1.66581E-05   1.76218E-03   5.17785E-04   1.20328E-10
 2.95000E+01               1.66581E-05   1.76218E-03   5.17785E-04   1.01168E-17
 3.05000E+01               1.66581E-05   1.76218E-03   5.17785E-04   8.33871E-19
 3.15000E+01               1.66581E-05   1.76218E-03   5.17785E-04   5.70444E-20
 3.25000E+01               1.66581E-05   1.76218E-03   5.17785E-04   1.33669E-21
 3.35000E+01               1.66581E-05   1.76218E-03   5.17785E-04   7.72810E-23
 3.45000E+01               1.66581E-05   1.76218E-03   5.17785E-04   4.82169E-24
 3.55000E+01               1.66581E-05   1.76218E-03   5.17785E-04   2.90806E-25
 3.65000E+01               1.66581E-05   1.76218E-03   5.17785E-04   2.96697E-26
 3.75000E+01               1.66581E-05   1.76218E-03   5.17785E-04   3.55976E-27
 3.85000E+01               1.66581E-05   1.76218E-03   5.17785E-04   4.37584E-28
 3.95000E+01               1.66581E-05   1.76218E-03   5.17785E-04   6.40969E-29
 4.05000E+01               1.66581E-05   1.76218E-03   5.17785E-04   1.12311E-29
 4.15000E+01               1.66581E-05   1.76218E-03   5.17785E-04   2.63325E-30
 4.25000E+01               1.66581E-05   1.76218E-03   5.17785E-04   1.85009E-30
 4.35000E+01               1.66581E-05   1.76218E-03   5.17785E-04   1.46556E-30
 4.45000E+01               1.66581E-05   1.76218E-03   5.17785E-04   1.22408E-30
 4.55000E+01               1.66581E-05   1.76218E-03   5.17785E-04   1.09765E-30
 4.65000E+01               1.66581E-05   1.76218E-03   5.17785E-04   1.03972E-30
 4.75000E+01               1.66581E-05   1.76218E-03   5.17785E-04   1.01519E-30
 4.85000E+01               1.66581E-05   1.76218E-03   5.17785E-04   1.00547E-30
 4.95000E+01               1.66581E-05   1.76218E-03   5.17785E-04   1.00185E-30
 5.05000E+01               1.66581E-05   1.76218E-03   5.17785E-04   1.00059E-30
 5.15000E+01               1.66581E-05   1.76218E-03   5.17785E-04   1.00018E-30
 5.25000E+01               1.66581E-05   1.76218E-03   5.17785E-04   1.00005E-30
 5.35000E+01               1.66581E-05   1.76218E-03   5.17785E-04   1.00001E-30
 5.45000E+01               1.66581E-05   1.76218E-03   5.17785E-04   1.00000E-30
 5.55000E+01               1.66581E-05   1.76218E-03   5.17785E-04   1.00000E-30
 5.65000E+01               1.66581E-05   1.76218E-03   5.17785E-04   1.00000E-30
 5.75000E+01               1.66581E-05   1.76218E-03   5.17785E-04   1.00000E-30
 5.85000E+01               1.66581E-05   1.76218E-03   5.17785E-04   1.00000E-30
 5.95000E+01               1.66581E-05   1.76218E-03   5.17785E-04   1.00000E-30
 6.05000E+01               1.66581E-05   1.76218E-03   5.17785E-04   1.00000E-30
 6.15000E+01               1.66581E-05   1.76218E-03   5.17785E-04   1.00000E-30
 6.25000E+01               1.66581E-05   1.76218E-03   5.17785E-04   1.00000E-30
 6.35000E+01               1.66581E-05   1.76218E-03   5.17785E-04   1.00000E-30
 6.45000E+01               1.66581E-05   1.76218E-03   5.17785E-04   1.00000E-30
 6.55000E+01               1.66581E-05   1.76218E-03   5.17785E-04   1.00000E-30
 6.65000E+01               1.66581E-05   1.76218E-03   5.17785E-04   1.00000E-30
 6.75000E+01               1.66581E-05   1.76218E-03   5.17785E-04   1.00000E-30
 6.85000E+01               1.66581E-05   1.76218E-03   5.17785E-04   1.00000E-30
 6.95000E+01               1.66581E-05   1.76218E-03   5.17785E-04   1.00000E-30
 7.05000E+01               1.66581E-05   1.76218E-03   5.17785E-04   1.00000E-30
 7.15000E+01               1.66581E-05   1.76218E-03   5.17785E-04   1.00000E-30
 7.25000E+01               1.66581E-05   1.76218E-03   5.17785E-04   1.00000E-30
 7.35000E+01               1.66581E-05   1.76218E-03   5.17785E-04   1.00000E-30
 7.45000E+01               1.66581E-05   1.76218E-03   5.17785E-04   1.00000E-30
 7.55000E+01               1.66581E-05   1.76218E-03   5.17785E-04   1.00000E-30
 7.65000E+01               1.66581E-05   1.76218E-03   5.17785E-04   1.00000E-30
 7.75000E+01               1.66581E-05   1.76218E-03   5.17785E-04   1.00000E-30
 7.85000E+01               1.66581E-05   1.76218E-03   5.17785E-04   1.00000E-30
 7.95000E+01               1.66581E-05   1.76218E-03   5.17785E-04   1.00000E-30
 8.05000E+01               1.66581E-05   1.76218E-03   5.17785E-04   1.00000E-30
 8.15000E+01               1.66581E-05   1.76218E-03   5.17785E-04   1.00000E-30
 8.25000E+01               1.66581E-05   1.76218E-03   5.17785E-04   1.00000E-30
 8.35000E+01               1.66581E-05   1.76218E-03   5.17785E-04   1.00000E-30
 8.45000E+01               1.66581E-05   1.76218E-03   5.17785E-04   1.00000E-30
 8.55000E+01               1.66581E-05   1.76218E-03   5.17785E-04   1.00000E-30
 8.65000E+01               1.66581E-05   1.76218E-03   5.17785E-04   1.00000E-30
 8.75000E+01               1.66581E-05   1.76218E-03   5.17785E-04   1.00000E-30
 8.85000E+01               1.66581E-05   1.76218E-03   5.17785E-04   1.00000E-30
 8.95000E+01               1.66581E-05   1.76218E-03   5.17785E-04   1.00000E-30
 9.05000E+01               1.66581E-05   1.76218E-03   5.17785E-04   1.00000E-30
 9.15000E+01               1.66581E-05   1.76218E-03   5.17785E-04   1.00000E-30
 9.25000E+01               1.66581E-05   1.76218E-03   5.17785E-04   1.00000E-30
 9.35000E+01               1.66581E-05   1.76218E-03   5.17785E-04   1.00000E-30
 9.45000E+01               1.66581E-05   1.76218E-03   5.17785E-04   1.00000E-30
 9.55000E+01               1.66581E-05   1.76218E-03   5.17785E-04   1.00000E-30
 9.65000E+01               1.66581E-05   1.76218E-03   5.17785E-04   1.00000E-30
 9.75000E+01               1.66581E-05   1.76218E-03   5.17785E-04   1.00000E-30
 9.85000E+01               1.66581E-05   1.76218E-03   5.17785E-04   1.00000E-30
 9.95000E+01               1.66581E-05   1.76218E-03   5.17785E-04   1.00000E-30
