TITLE = "  1.0000E+00 [y]"
VARIABLES="X [m]","Y [m]","Z [m]"," 4-pH"," 5-Al+++_tot_m"," 6-H+_tot_m"," 7-HPO4--_tot_m"," 8-SiO2(aq)_tot_m"," 9-UO2++_tot_m","10-Quartz_vf","11-Kaolinite_vf","12-(UO2)3(PO4)2.4H2O_vf","13-Quartz_rt","14-Kaolinite_rt","15-(UO2)3(PO4)2.4H2O_rt","16->SiOH","17->FeOH","18->AlOH","19->SiOUO3H3++","20->SiOUO3H2+","21->SiOUO3H","22->SiOUO3-","23->SiOUO2(OH)2-","24->FeOHUO3","25->FeOHUO2++","26->AlOUO2+","27-Al+++_kd","28-H+_kd","29-HPO4--_kd","30-SiO2(aq)_kd","31-UO2++_kd","32-Al+++_total_sorb","33-H+_total_sorb","34-HPO4--_total_sorb","35-SiO2(aq)_total_sorb","36-UO2++_total_sorb","37-Material_ID"
ZONE T= "  1.0000E+00", I=  100, J=    1, K=    1, DATAPACKING=POINT
 5.000000E-01  5.000000E-01  5.000000E-01  2.930000E+00  2.890870E-05  1.280702E-03  7.102790E-05  2.527990E-04  3.541350E-05  2.100000E-01  1.500000E-01  7.537937E-20  1.523919E-32 -1.999997E-31  4.987564E-24  6.359634E-03  1.218213E-04  4.302931E-04  5.043139E-13  4.292407E-10  3.653431E-07  2.102330E-11  2.102330E-11  9.440437E-07  6.237235E-03  5.929707E-03  0.000000E+00 -2.322640E-02  0.000000E+00  0.000000E+00  1.722917E+00  0.000000E+00 -5.932326E-03  0.000000E+00  0.000000E+00  1.216825E-02           1 
 1.500000E+00  5.000000E-01  5.000000E-01  2.930000E+00  2.890870E-05  1.280702E-03  7.102790E-05  2.527990E-04  3.541350E-05  2.100000E-01  1.500000E-01  7.292824E-20  1.523919E-32 -1.999997E-31  4.987564E-24  6.359634E-03  1.218213E-04  4.302931E-04  5.043139E-13  4.292407E-10  3.653431E-07  2.102330E-11  2.102330E-11  9.440437E-07  6.237235E-03  5.929707E-03  0.000000E+00 -2.322640E-02  0.000000E+00  0.000000E+00  1.722917E+00  0.000000E+00 -5.932326E-03  0.000000E+00  0.000000E+00  1.216825E-02           1 
 2.500000E+00  5.000000E-01  5.000000E-01  2.930000E+00  2.890870E-05  1.280702E-03  7.102790E-05  2.527990E-04  3.541350E-05  2.100000E-01  1.500000E-01  7.061828E-20  1.523919E-32 -1.999997E-31  4.987564E-24  6.359634E-03  1.218213E-04  4.302931E-04  5.043139E-13  4.292407E-10  3.653431E-07  2.102330E-11  2.102330E-11  9.440437E-07  6.237235E-03  5.929707E-03  0.000000E+00 -2.322640E-02  0.000000E+00  0.000000E+00  1.722917E+00  0.000000E+00 -5.932326E-03  0.000000E+00  0.000000E+00  1.216825E-02           1 
 3.500000E+00  5.000000E-01  5.000000E-01  2.930000E+00  2.890870E-05  1.280702E-03  7.102790E-05  2.527990E-04  3.541350E-05  2.100000E-01  1.500000E-01  6.812513E-20  1.523919E-32 -1.999997E-31  4.987564E-24  6.359634E-03  1.218213E-04  4.302931E-04  5.043139E-13  4.292407E-10  3.653431E-07  2.102330E-11  2.102330E-11  9.440437E-07  6.237235E-03  5.929707E-03  0.000000E+00 -2.322640E-02  0.000000E+00  0.000000E+00  1.722917E+00  0.000000E+00 -5.932326E-03  0.000000E+00  0.000000E+00  1.216825E-02           1 
 4.500000E+00  5.000000E-01  5.000000E-01  2.930000E+00  2.890870E-05  1.280702E-03  7.102790E-05  2.527990E-04  3.541350E-05  2.100000E-01  1.500000E-01  6.535704E-20  1.523919E-32 -1.999997E-31  4.987564E-24  6.359634E-03  1.218213E-04  4.302931E-04  5.043139E-13  4.292407E-10  3.653431E-07  2.102330E-11  2.102330E-11  9.440437E-07  6.237235E-03  5.929707E-03  0.000000E+00 -2.322640E-02  0.000000E+00  0.000000E+00  1.722917E+00  0.000000E+00 -5.932326E-03  0.000000E+00  0.000000E+00  1.216825E-02           1 
 5.500000E+00  5.000000E-01  5.000000E-01  2.930000E+00  2.890870E-05  1.280702E-03  7.102790E-05  2.527990E-04  3.541350E-05  2.100000E-01  1.500000E-01  6.251429E-20  1.523919E-32 -1.999997E-31  4.987564E-24  6.359634E-03  1.218213E-04  4.302931E-04  5.043139E-13  4.292407E-10  3.653431E-07  2.102330E-11  2.102330E-11  9.440437E-07  6.237235E-03  5.929707E-03  0.000000E+00 -2.322640E-02  0.000000E+00  0.000000E+00  1.722917E+00  0.000000E+00 -5.932326E-03  0.000000E+00  0.000000E+00  1.216825E-02           1 
 6.500000E+00  5.000000E-01  5.000000E-01  2.930000E+00  2.890870E-05  1.280702E-03  7.102790E-05  2.527990E-04  3.541350E-05  2.100000E-01  1.500000E-01  5.995176E-20  1.523919E-32 -1.999997E-31  4.987563E-24  6.359634E-03  1.218213E-04  4.302931E-04  5.043139E-13  4.292407E-10  3.653431E-07  2.102330E-11  2.102330E-11  9.440437E-07  6.237235E-03  5.929707E-03  0.000000E+00 -2.322640E-02  0.000000E+00  0.000000E+00  1.722917E+00  0.000000E+00 -5.932326E-03  0.000000E+00  0.000000E+00  1.216825E-02           1 
 7.500000E+00  5.000000E-01  5.000000E-01  2.930000E+00  2.890870E-05  1.280702E-03  7.102790E-05  2.527990E-04  3.541350E-05  2.100000E-01  1.500000E-01  5.746994E-20  1.523919E-32 -1.999997E-31  4.987563E-24  6.359634E-03  1.218213E-04  4.302932E-04  5.043139E-13  4.292407E-10  3.653431E-07  2.102330E-11  2.102330E-11  9.440437E-07  6.237235E-03  5.929707E-03  0.000000E+00 -2.322640E-02  0.000000E+00  0.000000E+00  1.722917E+00  0.000000E+00 -5.932326E-03  0.000000E+00  0.000000E+00  1.216825E-02           1 
 8.500000E+00  5.000000E-01  5.000000E-01  2.930000E+00  2.890870E-05  1.280702E-03  7.102790E-05  2.527990E-04  3.541350E-05  2.100000E-01  1.500000E-01  5.501751E-20  1.523919E-32 -1.999997E-31  4.987562E-24  6.359634E-03  1.218213E-04  4.302932E-04  5.043138E-13  4.292407E-10  3.653431E-07  2.102330E-11  2.102330E-11  9.440437E-07  6.237235E-03  5.929707E-03  0.000000E+00 -2.322640E-02  0.000000E+00  0.000000E+00  1.722917E+00  0.000000E+00 -5.932326E-03  0.000000E+00  0.000000E+00  1.216825E-02           1 
 9.500000E+00  5.000000E-01  5.000000E-01  2.930000E+00  2.890870E-05  1.280702E-03  7.102790E-05  2.527990E-04  3.541349E-05  2.100000E-01  1.500000E-01  5.220045E-20  1.523919E-32 -1.999997E-31  4.987558E-24  6.359634E-03  1.218214E-04  4.302933E-04  5.043137E-13  4.292406E-10  3.653430E-07  2.102329E-11  2.102329E-11  9.440437E-07  6.237235E-03  5.929707E-03  0.000000E+00 -2.322640E-02  0.000000E+00  0.000000E+00  1.722917E+00  0.000000E+00 -5.932326E-03  0.000000E+00  0.000000E+00  1.216825E-02           1 
 1.050000E+01  5.000000E-01  5.000000E-01  2.930000E+00  2.890870E-05  1.280702E-03  7.102790E-05  2.527990E-04  3.541347E-05  2.100000E-01  1.500000E-01  4.993053E-20  1.523919E-32 -1.999997E-31  4.987547E-24  6.359634E-03  1.218215E-04  4.302936E-04  5.043133E-13  4.292402E-10  3.653427E-07  2.102328E-11  2.102328E-11  9.440436E-07  6.237235E-03  5.929706E-03  0.000000E+00 -2.322640E-02  0.000000E+00  0.000000E+00  1.722918E+00  0.000000E+00 -5.932326E-03  0.000000E+00  0.000000E+00  1.216825E-02           1 
 1.150000E+01  5.000000E-01  5.000000E-01  2.930000E+00  2.890870E-05  1.280702E-03  7.102790E-05  2.527990E-04  3.541341E-05  2.100000E-01  1.500000E-01  4.759481E-20  1.523919E-32 -1.999997E-31  4.987518E-24  6.359634E-03  1.218217E-04  4.302944E-04  5.043123E-13  4.292394E-10  3.653420E-07  2.102323E-11  2.102323E-11  9.440436E-07  6.237234E-03  5.929706E-03  0.000000E+00 -2.322639E-02  0.000000E+00  0.000000E+00  1.722921E+00  0.000000E+00 -5.932325E-03  0.000000E+00  0.000000E+00  1.216825E-02           1 
 1.250000E+01  5.000000E-01  5.000000E-01  2.930000E+00  2.890870E-05  1.280702E-03  7.102790E-05  2.527990E-04  3.541327E-05  2.100000E-01  1.500000E-01  4.502351E-20  1.523919E-32 -1.999997E-31  4.987449E-24  6.359634E-03  1.218223E-04  4.302963E-04  5.043099E-13  4.292373E-10  3.653402E-07  2.102313E-11  2.102313E-11  9.440434E-07  6.237234E-03  5.929704E-03  0.000000E+00 -2.322638E-02  0.000000E+00  0.000000E+00  1.722927E+00  0.000000E+00 -5.932323E-03  0.000000E+00  0.000000E+00  1.216825E-02           1 
 1.350000E+01  5.000000E-01  5.000000E-01  2.930000E+00  2.890870E-05  1.280703E-03  7.102790E-05  2.527990E-04  3.541296E-05  2.100000E-01  1.500000E-01  4.167496E-20  1.523919E-32 -1.999997E-31  4.987293E-24  6.359634E-03  1.218236E-04  4.303007E-04  5.043044E-13  4.292326E-10  3.653362E-07  2.102290E-11  2.102290E-11  9.440430E-07  6.237232E-03  5.929699E-03  0.000000E+00 -2.322636E-02  0.000000E+00  0.000000E+00  1.722942E+00  0.000000E+00 -5.932319E-03  0.000000E+00  0.000000E+00  1.216824E-02           1 
 1.450000E+01  5.000000E-01  5.000000E-01  2.930000E+00  2.890870E-05  1.280703E-03  7.102791E-05  2.527990E-04  3.541230E-05  2.100000E-01  1.500000E-01  3.950144E-20  1.523919E-32 -1.999997E-31  4.986957E-24  6.359634E-03  1.218263E-04  4.303101E-04  5.042927E-13  4.292226E-10  3.653275E-07  2.102240E-11  2.102240E-11  9.440423E-07  6.237230E-03  5.929690E-03  0.000000E+00 -2.322632E-02  0.000000E+00  0.000000E+00  1.722972E+00  0.000000E+00 -5.932309E-03  0.000000E+00  0.000000E+00  1.216823E-02           1 
 1.550000E+01  5.000000E-01  5.000000E-01  2.930000E+00  2.890869E-05  1.280704E-03  7.102792E-05  2.527990E-04  3.541095E-05  2.100000E-01  1.500000E-01  3.751299E-20  1.523918E-32 -1.999997E-31  4.986276E-24  6.359634E-03  1.218320E-04  4.303292E-04  5.042689E-13  4.292021E-10  3.653100E-07  2.102138E-11  2.102138E-11  9.440407E-07  6.237224E-03  5.929671E-03  0.000000E+00 -2.322623E-02  0.000000E+00  0.000000E+00  1.723035E+00  0.000000E+00 -5.932290E-03  0.000000E+00  0.000000E+00  1.216820E-02           1 
 1.650000E+01  5.000000E-01  5.000000E-01  2.929999E+00  2.890869E-05  1.280705E-03  7.102795E-05  2.527990E-04  3.540835E-05  2.100000E-01  1.500000E-01  3.547755E-20  1.523918E-32 -1.999997E-31  4.984970E-24  6.359634E-03  1.218428E-04  4.303659E-04  5.042232E-13  4.291629E-10  3.652763E-07  2.101943E-11  2.101943E-11  9.440376E-07  6.237213E-03  5.929634E-03  0.000000E+00 -2.322606E-02  0.000000E+00  0.000000E+00  1.723154E+00  0.000000E+00 -5.932253E-03  0.000000E+00  0.000000E+00  1.216816E-02           1 
 1.750000E+01  5.000000E-01  5.000000E-01  2.929999E+00  2.890867E-05  1.280708E-03  7.102802E-05  2.527989E-04  3.540359E-05  2.100000E-01  1.500000E-01  3.325279E-20  1.523918E-32 -1.999997E-31  4.982570E-24  6.359634E-03  1.218628E-04  4.304334E-04  5.041390E-13  4.290907E-10  3.652144E-07  2.101583E-11  2.101583E-11  9.440321E-07  6.237193E-03  5.929567E-03  0.000000E+00 -2.322575E-02  0.000000E+00  0.000000E+00  1.723374E+00  0.000000E+00 -5.932186E-03  0.000000E+00  0.000000E+00  1.216807E-02           1 
 1.850000E+01  5.000000E-01  5.000000E-01  2.929998E+00  2.890865E-05  1.280713E-03  7.102831E-05  2.527989E-04  3.539537E-05  2.100000E-01  1.500000E-01  3.252078E-20  1.523918E-32 -1.999997E-31  4.978434E-24  6.359634E-03  1.218974E-04  4.305506E-04  5.039930E-13  4.289654E-10  3.651069E-07  2.100960E-11  2.100960E-11  9.440224E-07  6.237159E-03  5.929449E-03  0.000000E+00 -2.322520E-02  0.000000E+00  0.000000E+00  1.723752E+00  0.000000E+00 -5.932068E-03  0.000000E+00  0.000000E+00  1.216792E-02           1 
 1.950000E+01  5.000000E-01  5.000000E-01  2.929996E+00  2.890862E-05  1.280721E-03  7.102901E-05  2.527988E-04  3.538138E-05  2.100000E-01  1.500000E-01  2.822341E-20  1.523917E-32 -1.999997E-31  4.971396E-24  6.359635E-03  1.219567E-04  4.307513E-04  5.037432E-13  4.287510E-10  3.649230E-07  2.099893E-11  2.099893E-11  9.440058E-07  6.237099E-03  5.929249E-03  0.000000E+00 -2.322425E-02  0.000000E+00  0.000000E+00  1.724397E+00  0.000000E+00 -5.931867E-03  0.000000E+00  0.000000E+00  1.216766E-02           1 
 2.050000E+01  5.000000E-01  5.000000E-01  2.929993E+00  2.890856E-05  1.280736E-03  7.103030E-05  2.527987E-04  3.535762E-05  2.100000E-01  1.500000E-01  2.590922E-20  1.523915E-32 -1.999997E-31  4.959460E-24  6.359635E-03  1.220576E-04  4.310928E-04  5.033187E-13  4.283868E-10  3.646104E-07  2.098080E-11  2.098080E-11  9.439775E-07  6.236998E-03  5.928907E-03  0.000000E+00 -2.322265E-02  0.000000E+00  0.000000E+00  1.725493E+00  0.000000E+00 -5.931525E-03  0.000000E+00  0.000000E+00  1.216721E-02           1 
 2.150000E+01  5.000000E-01  5.000000E-01  2.929988E+00  2.890847E-05  1.280761E-03  7.103267E-05  2.527985E-04  3.531856E-05  2.100000E-01  1.500000E-01  2.376358E-20  1.523913E-32 -1.999997E-31  4.939873E-24  6.359635E-03  1.222241E-04  4.316563E-04  5.026196E-13  4.277869E-10  3.640957E-07  2.095095E-11  2.095095E-11  9.439309E-07  6.236832E-03  5.928344E-03  0.000000E+00 -2.321999E-02  0.000000E+00  0.000000E+00  1.727297E+00  0.000000E+00 -5.930960E-03  0.000000E+00  0.000000E+00  1.216648E-02           1 
 2.250000E+01  5.000000E-01  5.000000E-01  2.929980E+00  2.890832E-05  1.280800E-03  7.103628E-05  2.527981E-04  3.525446E-05  2.100000E-01  1.500000E-01  2.049682E-20  1.523910E-32 -1.999997E-31  4.907819E-24  6.359636E-03  1.224978E-04  4.325823E-04  5.014747E-13  4.268046E-10  3.632530E-07  2.090207E-11  2.090207E-11  9.438546E-07  6.236558E-03  5.927418E-03  0.000000E+00 -2.321564E-02  0.000000E+00  0.000000E+00  1.730267E+00  0.000000E+00 -5.930033E-03  0.000000E+00  0.000000E+00  1.216528E-02           1 
 2.350000E+01  5.000000E-01  5.000000E-01  2.929967E+00  2.890810E-05  1.280863E-03  7.104106E-05  2.527976E-04  3.515095E-05  2.100000E-01  1.500000E-01  1.855916E-20  1.523905E-32 -1.999997E-31  4.856288E-24  6.359638E-03  1.229406E-04  4.340797E-04  4.996333E-13  4.252249E-10  3.618978E-07  2.082348E-11  2.082348E-11  9.437322E-07  6.236116E-03  5.925920E-03  0.000000E+00 -2.320863E-02  0.000000E+00  0.000000E+00  1.735085E+00  0.000000E+00 -5.928532E-03  0.000000E+00  0.000000E+00  1.216334E-02           1 
 2.450000E+01  5.000000E-01  5.000000E-01  2.929948E+00  2.890778E-05  1.280960E-03  7.104817E-05  2.527968E-04  3.499053E-05  2.100000E-01  1.500000E-01  1.642116E-20  1.523897E-32 -1.999997E-31  4.777001E-24  6.359640E-03  1.236317E-04  4.364159E-04  4.967854E-13  4.227820E-10  3.598025E-07  2.070198E-11  2.070198E-11  9.435423E-07  6.235425E-03  5.923584E-03  0.000000E+00 -2.319772E-02  0.000000E+00  0.000000E+00  1.742606E+00  0.000000E+00 -5.926191E-03  0.000000E+00  0.000000E+00  1.216031E-02           1 
 2.550000E+01  5.000000E-01  5.000000E-01  2.929920E+00  2.890730E-05  1.281112E-03  7.107523E-05  2.527957E-04  3.477767E-05  2.100000E-01  1.500000E-01  1.622875E-20  1.523886E-32 -1.999997E-31  4.672985E-24  6.359643E-03  1.245819E-04  4.396269E-04  4.929214E-13  4.194667E-10  3.569582E-07  2.053701E-11  2.053701E-11  9.432776E-07  6.234475E-03  5.920373E-03  0.000000E+00 -2.318236E-02  0.000000E+00  0.000000E+00  1.752672E+00  0.000000E+00 -5.922974E-03  0.000000E+00  0.000000E+00  1.215615E-02           1 
 2.650000E+01  5.000000E-01  5.000000E-01  2.929877E+00  2.890662E-05  1.281339E-03  7.110976E-05  2.527941E-04  3.444585E-05  2.100000E-01  1.500000E-01  1.202921E-20  1.523870E-32 -1.999997E-31  4.513236E-24  6.359647E-03  1.260766E-04  4.446726E-04  4.869610E-13  4.143539E-10  3.525727E-07  2.028271E-11  2.028271E-11  9.428666E-07  6.232981E-03  5.915327E-03  0.000000E+00 -2.315848E-02  0.000000E+00  0.000000E+00  1.768602E+00  0.000000E+00 -5.917919E-03  0.000000E+00  0.000000E+00  1.214960E-02           1 
 2.750000E+01  5.000000E-01  5.000000E-01  2.929813E+00  2.890567E-05  1.281667E-03  7.114588E-05  2.527919E-04  3.392860E-05  2.100000E-01  1.500000E-01  9.998177E-21  1.523847E-32 -1.999997E-31  4.269979E-24  6.359654E-03  1.284422E-04  4.526437E-04  4.778117E-13  4.065090E-10  3.458466E-07  1.989285E-11  1.989285E-11  9.422318E-07  6.230616E-03  5.907356E-03  0.000000E+00 -2.312131E-02  0.000000E+00  0.000000E+00  1.794037E+00  0.000000E+00 -5.909933E-03  0.000000E+00  0.000000E+00  1.213926E-02           1 
 2.850000E+01  5.000000E-01  5.000000E-01  2.929728E+00  2.890436E-05  1.282193E-03  7.129195E-05  2.527888E-04  3.333634E-05  2.100000E-01  1.500000E-01  9.373201E-21  1.523817E-32 -1.999997E-31  4.000479E-24  6.359662E-03  1.313870E-04  4.625542E-04  4.668822E-13  3.971324E-10  3.378028E-07  1.942635E-11  1.942635E-11  9.414162E-07  6.227672E-03  5.897446E-03  0.000000E+00 -2.307299E-02  0.000000E+00  0.000000E+00  1.823975E+00  0.000000E+00 -5.900005E-03  0.000000E+00  0.000000E+00  1.212640E-02           1 
 2.950000E+01  5.000000E-01  5.000000E-01  2.929597E+00  2.890261E-05  1.282930E-03  7.143653E-05  2.527846E-04  3.234501E-05  2.100000E-01  1.500000E-01  5.820609E-21  1.523775E-32 -1.999997E-31  3.569326E-24  6.359675E-03  1.364180E-04  4.794240E-04  4.493016E-13  3.820630E-10  3.248868E-07  1.867795E-11  1.867795E-11  9.400888E-07  6.222642E-03  5.880576E-03  0.000000E+00 -2.299369E-02  0.000000E+00  0.000000E+00  1.876480E+00  0.000000E+00 -5.883106E-03  0.000000E+00  0.000000E+00  1.210448E-02           1 
 3.050000E+01  5.000000E-01  5.000000E-01  2.929402E+00  2.890028E-05  1.283932E-03  7.151865E-05  2.527789E-04  3.068248E-05  2.100000E-01  1.500000E-01  4.162697E-21  1.523718E-32 -1.999997E-31  2.901685E-24  6.359695E-03  1.453504E-04  5.091894E-04  4.210863E-13  3.579093E-10  3.042110E-07  1.748142E-11  1.748142E-11  9.378965E-07  6.213712E-03  5.850811E-03  0.000000E+00 -2.285932E-02  0.000000E+00  0.000000E+00  1.971830E+00  0.000000E+00 -5.853295E-03  0.000000E+00  0.000000E+00  1.206576E-02           1 
 3.150000E+01  5.000000E-01  5.000000E-01  2.929136E+00  2.889726E-05  1.285346E-03  7.164561E-05  2.527715E-04  2.836582E-05  2.100000E-01  1.500000E-01  2.587866E-21  1.523644E-32 -1.999997E-31  2.083033E-24  6.359724E-03  1.595689E-04  5.561270E-04  3.826894E-13  3.250739E-10  2.761327E-07  1.585819E-11  1.585819E-11  9.346045E-07  6.199496E-03  5.803873E-03  0.000000E+00 -2.265083E-02  0.000000E+00  0.000000E+00  2.122055E+00  0.000000E+00 -5.806295E-03  0.000000E+00  0.000000E+00  1.200458E-02           1 
 3.250000E+01  5.000000E-01  5.000000E-01  2.928882E+00  2.889358E-05  1.288902E-03  7.435081E-05  2.527619E-04  2.898901E-05  2.100000E-01  1.500000E-01  4.408024E-21  1.523548E-32 -1.999997E-31  2.288220E-24  6.359725E-03  1.599764E-04  5.577538E-04  3.816896E-13  3.240350E-10  2.750892E-07  1.578902E-11  1.578902E-11  9.334502E-07  6.199090E-03  5.802246E-03  0.000000E+00 -2.258199E-02  0.000000E+00  0.000000E+00  2.076084E+00  0.000000E+00 -5.804664E-03  0.000000E+00  0.000000E+00  1.200255E-02           1 
 3.350000E+01  5.000000E-01  5.000000E-01  2.928254E+00  2.888848E-05  1.291504E-03  7.383575E-05  2.527495E-04  2.273241E-05  2.100000E-01  1.500000E-01  1.018533E-22  1.523424E-32 -1.999997E-31  5.806286E-25  6.359793E-03  2.100574E-04  7.188616E-04  2.883439E-13  2.444356E-10  2.072135E-07  1.187604E-11  1.187604E-11  9.232369E-07  6.149019E-03  5.641138E-03  0.000000E+00 -2.191039E-02  0.000000E+00  0.000000E+00  2.600883E+00  0.000000E+00 -5.643400E-03  0.000000E+00  0.000000E+00  1.179129E-02           1 
 3.450000E+01  5.000000E-01  5.000000E-01  2.927721E+00  2.888147E-05  1.294205E-03  7.306926E-05  2.527338E-04  1.498271E-05  2.100000E-01  1.500000E-01  0.000000E+00  1.523267E-32 -1.999997E-31  0.000000E+00  6.359870E-03  3.274598E-04  1.072202E-03  1.814368E-13  1.536196E-10  1.300672E-07  7.445413E-12  7.445413E-12  9.033945E-07  6.031637E-03  5.287798E-03  0.000000E+00 -2.049494E-02  0.000000E+00  0.000000E+00  3.788604E+00  0.000000E+00 -5.289865E-03  0.000000E+00  0.000000E+00  1.132047E-02           1 
 3.550000E+01  5.000000E-01  5.000000E-01  2.927377E+00  2.887246E-05  1.296510E-03  7.226453E-05  2.527140E-04  7.047177E-06  2.100000E-01  1.500000E-01  0.000000E+00  1.523070E-32 -1.999997E-31  0.000000E+00  6.359942E-03  6.871083E-04  1.982252E-03  8.131441E-14  6.879312E-11  5.819993E-08  3.328894E-12  3.328894E-12  8.481926E-07  5.672044E-03  4.377748E-03  0.000000E+00 -1.693791E-02  0.000000E+00  0.000000E+00  7.151318E+00  0.000000E+00 -4.379561E-03  0.000000E+00  0.000000E+00  1.005070E-02           1 
 3.650000E+01  5.000000E-01  5.000000E-01  2.927505E+00  2.886178E-05  1.297025E-03  7.168796E-05  2.526895E-04  1.840852E-06  2.100000E-01  1.500000E-01  0.000000E+00  1.522826E-32 -1.999997E-31  0.000000E+00  6.359985E-03  2.058841E-03  4.079568E-03  2.057567E-14  1.741241E-11  1.473547E-08  8.430806E-13  8.430806E-13  6.434735E-07  4.300516E-03  2.280432E-03  0.000000E+00 -8.821135E-03  0.000000E+00  0.000000E+00  1.792743E+01  0.000000E+00 -2.281748E-03  0.000000E+00  0.000000E+00  6.581606E-03           1 
 3.750000E+01  5.000000E-01  5.000000E-01  2.927831E+00  2.884885E-05  1.296324E-03  7.148921E-05  2.526594E-04  3.264525E-07  2.100000E-01  1.500000E-01  0.000000E+00  1.522525E-32 -1.999997E-31  0.000000E+00  6.359997E-03  4.652214E-03  5.790784E-03  3.615478E-15  3.061937E-12  2.593145E-09  1.484764E-13  1.484764E-13  2.558760E-07  1.707530E-03  5.692155E-04  0.000000E+00 -2.203752E-03  0.000000E+00  0.000000E+00  3.497429E+01  0.000000E+00 -5.697325E-04  0.000000E+00  0.000000E+00  2.277005E-03           1 
 3.850000E+01  5.000000E-01  5.000000E-01  2.928137E+00  2.883312E-05  1.295407E-03  7.138199E-05  2.526228E-04  5.499533E-08  2.100000E-01  1.500000E-01  0.000000E+00  1.522159E-32 -1.999997E-31  0.000000E+00  6.360000E-03  5.989978E-03  6.256438E-03  6.084063E-16  5.156217E-13  4.369871E-10  2.503837E-14  2.503837E-14  5.551838E-08  3.699661E-04  1.035622E-04  0.000000E+00 -4.013000E-04  0.000000E+00  0.000000E+00  4.317938E+01  0.000000E+00 -1.036741E-04  0.000000E+00  0.000000E+00  4.735842E-04           1 
 3.950000E+01  5.000000E-01  5.000000E-01  2.928457E+00  2.881415E-05  1.294410E-03  7.129598E-05  2.525786E-04  9.413603E-09  2.100000E-01  1.500000E-01  0.000000E+00  1.521718E-32 -1.999997E-31  0.000000E+00  6.360000E-03  6.293433E-03  6.342012E-03  1.041742E-16  8.835217E-14  7.493320E-11  4.296664E-15  4.296664E-15  1.000241E-08  6.655653E-05  1.798818E-05  0.000000E+00 -6.976005E-05  0.000000E+00  0.000000E+00  4.503885E+01  0.000000E+00 -1.800833E-05  0.000000E+00  0.000000E+00  8.455478E-05           1 
 4.050000E+01  5.000000E-01  5.000000E-01  2.928815E+00  2.879146E-05  1.293296E-03  7.121471E-05  2.525257E-04  1.573906E-09  2.100000E-01  1.500000E-01  0.000000E+00  1.521191E-32 -1.999997E-31  0.000000E+00  6.360000E-03  6.348767E-03  6.356981E-03  1.742633E-17  1.479181E-14  1.255558E-11  7.205304E-16  7.205304E-16  1.690710E-09  1.123151E-05  3.018667E-06  0.000000E+00 -1.171689E-05  0.000000E+00  0.000000E+00  4.540445E+01  0.000000E+00 -3.022073E-06  0.000000E+00  0.000000E+00  1.425188E-05           1 
 4.150000E+01  5.000000E-01  5.000000E-01  2.929229E+00  2.876456E-05  1.292021E-03  7.113032E-05  2.524631E-04  2.682596E-10  2.100000E-01  1.500000E-01  0.000000E+00  1.520565E-32 -1.999997E-31  0.000000E+00  6.360000E-03  6.358082E-03  6.359485E-03  2.971825E-18  2.524944E-15  2.145262E-12  1.232278E-16  1.232278E-16  2.893006E-10  1.918193E-06  5.154857E-07  0.000000E+00 -2.002825E-06  0.000000E+00  0.000000E+00  4.549514E+01  0.000000E+00 -5.160686E-07  0.000000E+00  0.000000E+00  2.433970E-06           1 
 4.250000E+01  5.000000E-01  5.000000E-01  2.929708E+00  2.873292E-05  1.290547E-03  7.103813E-05  2.523895E-04  4.570313E-11  2.100000E-01  1.500000E-01  0.000000E+00  1.519830E-32 -1.999997E-31  0.000000E+00  6.360000E-03  6.359673E-03  6.359912E-03  5.066085E-19  4.309043E-16  3.665128E-13  2.107645E-17  2.107645E-17  4.943868E-11  3.270771E-07  8.797815E-08  0.000000E+00 -3.422137E-07  0.000000E+00  0.000000E+00  4.554253E+01  0.000000E+00 -8.807776E-08  0.000000E+00  0.000000E+00  4.151051E-07           1 
 4.350000E+01  5.000000E-01  5.000000E-01  2.930266E+00  2.869599E-05  1.288843E-03  7.093507E-05  2.523035E-04  7.806282E-12  2.100000E-01  1.500000E-01  0.000000E+00  1.518971E-32 -1.999997E-31  0.000000E+00  6.360000E-03  6.359944E-03  6.359985E-03  8.658737E-20  7.374287E-17  6.280375E-14  3.616188E-18  3.616188E-18  8.471918E-12  5.590501E-08  1.505633E-08  0.000000E+00 -5.864301E-08  0.000000E+00  0.000000E+00  4.558635E+01  0.000000E+00 -1.507340E-08  0.000000E+00  0.000000E+00  7.096987E-08           1 
 4.450000E+01  5.000000E-01  5.000000E-01  2.930910E+00  2.865318E-05  1.286877E-03  7.081883E-05  2.522038E-04  2.694738E-12  2.100000E-01  1.500000E-01  0.000000E+00  1.517976E-32 -1.999997E-31  0.000000E+00  6.360000E-03  6.359981E-03  6.359995E-03  2.991181E-20  2.551248E-17  2.176019E-14  1.254795E-18  1.254795E-18  2.935360E-12  1.931263E-08  5.208976E-09  0.000000E+00 -2.031951E-08  0.000000E+00  0.000000E+00  4.563412E+01  0.000000E+00 -5.214890E-09  0.000000E+00  0.000000E+00  2.452456E-08           1 
 4.550000E+01  5.000000E-01  5.000000E-01  2.931652E+00  2.860391E-05  1.284621E-03  7.068752E-05  2.520891E-04  3.097193E-13  2.100000E-01  1.500000E-01  0.000000E+00  1.516831E-32 -1.999997E-31  0.000000E+00  6.360000E-03  6.359998E-03  6.359999E-03  3.440708E-21  2.939676E-18  2.511604E-15  1.450784E-19  1.450784E-19  3.388059E-13  2.221507E-09  6.002047E-10  0.000000E+00 -2.345433E-09  0.000000E+00  0.000000E+00  4.568797E+01  0.000000E+00 -6.008874E-10  0.000000E+00  0.000000E+00  2.822053E-09           1 
 4.650000E+01  5.000000E-01  5.000000E-01  2.932500E+00  2.854757E-05  1.282047E-03  7.053940E-05  2.519579E-04  1.033753E-13  2.100000E-01  1.500000E-01  0.000000E+00  1.515521E-32 -1.999997E-31  0.000000E+00  6.360000E-03  6.359999E-03  6.360000E-03  1.149455E-21  9.839937E-19  8.423504E-16  4.875209E-20  4.875209E-20  1.136299E-13  7.421502E-10  2.009057E-10  0.000000E+00 -7.866619E-10  0.000000E+00  0.000000E+00  4.574868E+01  0.000000E+00 -2.011347E-10  0.000000E+00  0.000000E+00  9.431704E-10           1 
 4.750000E+01  5.000000E-01  5.000000E-01  2.933466E+00  2.848356E-05  1.279125E-03  7.037285E-05  2.518088E-04  5.814463E-14  2.100000E-01  1.500000E-01  0.000000E+00  1.514033E-32 -1.999997E-31  0.000000E+00  6.360000E-03  6.360000E-03  6.360000E-03  6.471836E-22  5.552569E-19  4.763875E-16  2.763292E-20  2.763292E-20  6.426291E-14  4.178568E-10  1.133689E-10  0.000000E+00 -4.449197E-10  0.000000E+00  0.000000E+00  4.581708E+01  0.000000E+00 -1.134984E-10  0.000000E+00  0.000000E+00  5.312904E-10           1 
 4.850000E+01  5.000000E-01  5.000000E-01  2.934560E+00  2.841127E-05  1.275829E-03  7.018630E-05  2.516405E-04  3.354287E-14  2.100000E-01  1.500000E-01  0.000000E+00  1.512352E-32 -1.999997E-31  0.000000E+00  6.360000E-03  6.360000E-03  6.360000E-03  3.737764E-22  3.214931E-19  2.765231E-16  1.608019E-20  1.608019E-20  3.730194E-14  2.413303E-10  6.564047E-11  0.000000E+00 -2.582744E-10  0.000000E+00  0.000000E+00  4.589391E+01  0.000000E+00 -6.571563E-11  0.000000E+00  0.000000E+00  3.070084E-10           1 
 4.950000E+01  5.000000E-01  5.000000E-01  2.935791E+00  2.833010E-05  1.272129E-03  6.997822E-05  2.514514E-04  2.075499E-14  2.100000E-01  1.500000E-01  0.000000E+00  1.510464E-32 -1.999997E-31  0.000000E+00  6.360000E-03  6.360000E-03  6.360000E-03  2.315707E-22  1.997443E-19  1.722920E-16  1.004745E-20  1.004745E-20  2.324155E-14  1.495146E-10  4.078254E-11  0.000000E+00 -1.609335E-10  0.000000E+00  0.000000E+00  4.597991E+01  0.000000E+00 -4.082937E-11  0.000000E+00  0.000000E+00  1.903205E-10           1 
 5.050000E+01  5.000000E-01  5.000000E-01  2.937170E+00  2.823946E-05  1.268000E-03  6.974712E-05  2.512402E-04  1.541792E-14  2.100000E-01  1.500000E-01  0.000000E+00  1.508356E-32 -1.999997E-31  0.000000E+00  6.360000E-03  6.360000E-03  6.360000E-03  1.722644E-22  1.490614E-19  1.289837E-16  7.545784E-21  7.545784E-21  1.739942E-14  1.112233E-10  3.043443E-11  0.000000E+00 -1.204900E-10  0.000000E+00  0.000000E+00  4.607582E+01  0.000000E+00 -3.046949E-11  0.000000E+00  0.000000E+00  1.416752E-10           1 
 5.150000E+01  5.000000E-01  5.000000E-01  2.938707E+00  2.813879E-05  1.263414E-03  6.949157E-05  2.510055E-04  1.397412E-14  2.100000E-01  1.500000E-01  0.000000E+00  1.506013E-32 -1.999997E-31  0.000000E+00  6.360000E-03  6.360000E-03  6.360000E-03  1.563748E-22  1.357917E-19  1.179180E-16  6.922879E-21  6.922879E-21  1.590670E-14  1.009640E-10  2.772512E-11  0.000000E+00 -1.101626E-10  0.000000E+00  0.000000E+00  4.618240E+01  0.000000E+00 -2.775717E-11  0.000000E+00  0.000000E+00  1.287052E-10           1 
 5.250000E+01  5.000000E-01  5.000000E-01  2.940412E+00  2.802755E-05  1.258347E-03  6.921020E-05  2.507462E-04  1.958615E-14  2.100000E-01  1.500000E-01  0.000000E+00  1.503424E-32 -1.999997E-31  0.000000E+00  6.360000E-03  6.360000E-03  6.360000E-03  2.195489E-22  1.914007E-19  1.668613E-16  9.834857E-21  9.834857E-21  2.250898E-14  1.417526E-10  3.907900E-11  0.000000E+00 -1.559020E-10  0.000000E+00  0.000000E+00  4.630042E+01  0.000000E+00 -3.912435E-11  0.000000E+00  0.000000E+00  1.808543E-10           1 
 5.350000E+01  5.000000E-01  5.000000E-01  2.942296E+00  2.790522E-05  1.252775E-03  6.890172E-05  2.504609E-04  2.676778E-14  2.100000E-01  1.500000E-01  0.000000E+00  1.500576E-32 -1.999996E-31  0.000000E+00  6.360000E-03  6.360000E-03  6.360000E-03  3.006117E-22  2.632100E-19  2.304617E-16  1.364254E-20  1.364254E-20  3.108843E-14  1.940912E-10  5.374057E-11  0.000000E+00 -2.153477E-10  0.000000E+00  0.000000E+00  4.643063E+01  0.000000E+00 -5.380321E-11  0.000000E+00  0.000000E+00  2.478631E-10           1 
 5.450000E+01  5.000000E-01  5.000000E-01  2.944369E+00  2.777134E-05  1.246675E-03  6.856491E-05  2.501486E-04  2.957337E-14  2.100000E-01  1.500000E-01  0.000000E+00  1.497458E-32 -1.999996E-31  0.000000E+00  6.360000E-03  6.360000E-03  6.360000E-03  3.327980E-22  2.927858E-19  2.575842E-16  1.532105E-20  1.532105E-20  3.474715E-14  2.148725E-10  5.977918E-11  0.000000E+00 -2.407189E-10  0.000000E+00  0.000000E+00  4.657381E+01  0.000000E+00 -5.984919E-11  0.000000E+00  0.000000E+00  2.746866E-10           1 
 5.550000E+01  5.000000E-01  5.000000E-01  2.946640E+00  2.762548E-05  1.240027E-03  6.819868E-05  2.498082E-04  2.913727E-14  2.100000E-01  1.500000E-01  0.000000E+00  1.494059E-32 -1.999996E-31  0.000000E+00  6.360000E-03  6.360000E-03  6.360000E-03  3.286199E-22  2.906258E-19  2.570244E-16  1.536791E-20  1.536791E-20  3.467164E-14  2.121748E-10  5.933817E-11  0.000000E+00 -2.402255E-10  0.000000E+00  0.000000E+00  4.673074E+01  0.000000E+00 -5.940802E-11  0.000000E+00  0.000000E+00  2.715479E-10           1 