TITLE = "  1.0000E-01 [y]"
VARIABLES="X [m]","Y [m]","Z [m]"," 4-pH"," 5-Al+++_tot_m"," 6-H+_tot_m"," 7-HPO4--_tot_m"," 8-SiO2(aq)_tot_m"," 9-UO2++_tot_m","10-Quartz_vf","11-Kaolinite_vf","12-(UO2)3(PO4)2.4H2O_vf","13-Quartz_rt","14-Kaolinite_rt","15-(UO2)3(PO4)2.4H2O_rt","16->SiOH","17->FeOH","18->AlOH","19->SiOUO3H3++","20->SiOUO3H2+","21->SiOUO3H","22->SiOUO3-","23->SiOUO2(OH)2-","24->FeOHUO3","25->FeOHUO2++","26->AlOUO2+","27-Al+++_kd","28-H+_kd","29-HPO4--_kd","30-SiO2(aq)_kd","31-UO2++_kd","32-Al+++_total_sorb","33-H+_total_sorb","34-HPO4--_total_sorb","35-SiO2(aq)_total_sorb","36-UO2++_total_sorb","37-Material_ID"
ZONE T= "  1.0000E-01", I=  100, J=    1, K=    1, DATAPACKING=POINT
 5.000000E-01  5.000000E-01  5.000000E-01  2.930043E+00  2.890544E-05  1.280580E-03  7.102025E-05  2.527916E-04  3.537438E-05  2.100000E-01  1.500000E-01  4.603037E-21  1.523844E-32 -1.999997E-31  4.970045E-24  6.359635E-03  1.219775E-04  4.307780E-04  5.036556E-13  4.287226E-10  3.649380E-07  2.100206E-11  2.100206E-11  9.442058E-07  6.237078E-03  5.929222E-03  0.000000E+00 -2.322671E-02  0.000000E+00  0.000000E+00  1.724731E+00  0.000000E+00 -5.931841E-03  0.000000E+00  0.000000E+00  1.216761E-02           1 
 1.500000E+00  5.000000E-01  5.000000E-01  2.930379E+00  2.887723E-05  1.279680E-03  7.096443E-05  2.527268E-04  3.481947E-05  2.100000E-01  1.500000E-01  2.202154E-21  1.523198E-32 -1.999997E-31  4.712824E-24  6.359641E-03  1.242841E-04  4.381979E-04  4.941257E-13  4.209362E-10  3.585874E-07  2.065256E-11  2.065256E-11  9.453183E-07  6.234771E-03  5.921802E-03  0.000000E+00 -2.321395E-02  0.000000E+00  0.000000E+00  1.750816E+00  0.000000E+00 -5.924410E-03  0.000000E+00  0.000000E+00  1.215788E-02           1 
 2.500000E+00  5.000000E-01  5.000000E-01  2.931493E+00  2.875434E-05  1.277431E-03  7.082536E-05  2.524431E-04  2.990098E-05  2.100000E-01  1.500000E-01  3.533753E-22  1.520365E-32 -1.999997E-31  2.671074E-24  6.359700E-03  1.489225E-04  5.186557E-04  4.107495E-13  3.508087E-10  2.996150E-07  1.730043E-11  1.730043E-11  9.464274E-07  6.210131E-03  5.841344E-03  0.000000E+00 -2.293853E-02  0.000000E+00  0.000000E+00  2.021179E+00  0.000000E+00 -5.843837E-03  0.000000E+00  0.000000E+00  1.205272E-02           1 
 3.500000E+00  5.000000E-01  5.000000E-01  2.934653E+00  2.839219E-05  1.274032E-03  7.022429E-05  2.516054E-04  5.586742E-06  2.100000E-01  1.500000E-01  0.000000E+00  1.512002E-32 -1.999997E-31  0.000000E+00  6.359952E-03  8.389116E-04  2.279432E-03  6.481794E-14  5.576322E-11  4.797340E-08  2.790315E-12  2.790315E-12  8.536167E-07  5.520235E-03  4.080568E-03  0.000000E+00 -1.606709E-02  0.000000E+00  0.000000E+00  8.617768E+00  0.000000E+00 -4.082371E-03  0.000000E+00  0.000000E+00  9.601705E-03           1 
 4.500000E+00  5.000000E-01  5.000000E-01  2.947238E+00  2.758630E-05  1.238456E-03  6.820432E-05  2.497332E-04  9.529984E-08  2.100000E-01  1.500000E-01  0.000000E+00  1.493310E-32 -1.999996E-31  0.000000E+00  6.359999E-03  5.734140E-03  6.171393E-03  1.074966E-15  9.519906E-13  8.430837E-10  5.047877E-14  5.047877E-14  1.025373E-07  6.257572E-04  1.886074E-04  0.000000E+00 -7.644674E-04  0.000000E+00  0.000000E+00  4.285356E+01  0.000000E+00 -1.888142E-04  0.000000E+00  0.000000E+00  8.144680E-04           1 
 5.500000E+00  5.000000E-01  5.000000E-01  2.970383E+00  2.613869E-05  1.172959E-03  6.463903E-05  2.463522E-04  1.357712E-09  2.100000E-01  1.500000E-01  0.000000E+00  1.459554E-32 -1.999996E-31  0.000000E+00  6.360000E-03  6.349917E-03  6.357019E-03  1.563916E-17  1.460819E-14  1.364519E-11  8.617129E-16  8.617129E-16  1.837767E-09  1.008148E-05  2.981212E-06  0.000000E+00 -1.276010E-05  0.000000E+00  0.000000E+00  4.824937E+01  0.000000E+00 -2.984915E-06  0.000000E+00  0.000000E+00  1.306455E-05           1 
 6.500000E+00  5.000000E-01  5.000000E-01  3.007916E+00  2.394804E-05  1.074069E-03  5.926269E-05  2.412134E-04  1.773902E-11  2.100000E-01  1.500000E-01  0.000000E+00  1.408250E-32 -1.999994E-31  0.000000E+00  6.360000E-03  6.359863E-03  6.359956E-03  2.113841E-19  2.152722E-16  2.192318E-13  1.509451E-17  1.509451E-17  2.957292E-11  1.364781E-07  4.395263E-08  0.000000E+00 -2.054689E-07  0.000000E+00  0.000000E+00  5.101028E+01  0.000000E+00 -4.401222E-08  0.000000E+00  0.000000E+00  1.804605E-07           1 
 7.500000E+00  5.000000E-01  5.000000E-01  3.062828E+00  2.107302E-05  9.443642E-04  5.222278E-05  2.344522E-04  2.108139E-13  2.100000E-01  1.500000E-01  0.000000E+00  1.340746E-32 -1.999990E-31  0.000000E+00  6.360000E-03  6.359998E-03  6.359999E-03  2.632818E-21  3.042629E-18  3.516228E-15  2.747294E-19  2.747294E-19  4.743260E-13  1.699890E-09  6.212250E-10  0.000000E+00 -3.303559E-09  0.000000E+00  0.000000E+00  5.521941E+01  0.000000E+00 -6.221807E-10  0.000000E+00  0.000000E+00  2.321593E-09           1 
 8.500000E+00  5.000000E-01  5.000000E-01  3.137161E+00  1.773034E-05  7.935974E-04  4.404492E-05  2.265917E-04  1.152554E-14  2.100000E-01  1.500000E-01  0.000000E+00  1.262268E-32 -1.999981E-31  0.000000E+00  6.360000E-03  6.360000E-03  6.360000E-03  1.526008E-22  2.092753E-19  2.869981E-16  2.660972E-20  2.660972E-20  3.871498E-14  9.852732E-11  4.272852E-11  0.000000E+00 -2.704673E-10  0.000000E+00  0.000000E+00  6.147097E+01  0.000000E+00 -4.280653E-11  0.000000E+00  0.000000E+00  1.412949E-10           1 
 9.500000E+00  5.000000E-01  5.000000E-01  3.232083E+00  1.423101E-05  6.358003E-04  3.548130E-05  2.183914E-04  8.701871E-15  2.100000E-01  1.500000E-01  0.000000E+00  1.180397E-32 -1.999958E-31  0.000000E+00  6.360000E-03  6.360000E-03  6.360000E-03  1.230963E-22  2.100526E-19  3.584355E-16  4.135175E-20  4.135175E-20  4.835161E-14  7.947766E-11  4.288723E-11  0.000000E+00 -3.389985E-10  0.000000E+00  0.000000E+00  7.053783E+01  0.000000E+00 -4.298465E-11  0.000000E+00  0.000000E+00  1.224136E-10           1 
 1.050000E+01  5.000000E-01  5.000000E-01  3.348072E+00  1.089027E-05  4.852046E-04  2.729758E-05  2.106214E-04  8.020594E-15  2.100000E-01  1.500000E-01  0.000000E+00  1.102822E-32 -1.999882E-31  0.000000E+00  6.360000E-03  6.360000E-03  6.360000E-03  1.214680E-22  2.707281E-19  6.033995E-16  9.092358E-20  9.092358E-20  8.139635E-14  7.842631E-11  5.527559E-11  0.000000E+00 -5.729281E-10  0.000000E+00  0.000000E+00  8.363775E+01  0.000000E+00 -5.543959E-11  0.000000E+00  0.000000E+00  1.337839E-10           1 
 1.150000E+01  5.000000E-01  5.000000E-01  3.485110E+00  7.951897E-06  3.528167E-04  2.009115E-05  2.038697E-04  6.687060E-15  2.100000E-01  1.500000E-01  0.000000E+00  1.035414E-32 -1.999598E-31  0.000000E+00  6.360000E-03  6.360000E-03  6.360000E-03  1.078910E-22  3.296817E-19  1.007406E-15  2.081203E-19  2.081203E-19  1.358954E-13  6.966025E-11  6.731237E-11  0.000000E+00 -9.605361E-10  0.000000E+00  0.000000E+00  1.028105E+02  0.000000E+00 -6.758617E-11  0.000000E+00  0.000000E+00  1.371095E-10           1 
 1.250000E+01  5.000000E-01  5.000000E-01  3.642853E+00  5.550819E-06  2.447211E-04  1.419871E-05  1.984459E-04  5.168786E-15  2.100000E-01  1.500000E-01  0.000000E+00  9.812626E-33 -1.998335E-31  0.000000E+00  6.360000E-03  6.360000E-03  6.360000E-03  8.776026E-23  3.856125E-19  1.694355E-15  5.033354E-19  5.033354E-19  2.285621E-13  5.666278E-11  7.873196E-11  0.000000E+00 -1.622623E-09  0.000000E+00  0.000000E+00  1.315698E+02  0.000000E+00 -7.919248E-11  0.000000E+00  0.000000E+00  1.356250E-10           1 
 1.350000E+01  5.000000E-01  5.000000E-01  3.820773E+00  3.715212E-06  1.621762E-04  9.698424E-06  1.943904E-04  3.816264E-15  2.100000E-01  1.500000E-01  0.000000E+00  9.407729E-33 -1.991698E-31  0.000000E+00  6.360000E-03  6.360000E-03  6.360000E-03  6.684454E-23  4.424239E-19  2.928270E-15  1.310339E-18  1.310339E-18  3.950128E-13  4.315846E-11  9.033136E-11  0.000000E+00 -2.817514E-09  0.000000E+00  0.000000E+00  1.759168E+02  0.000000E+00 -9.112725E-11  0.000000E+00  0.000000E+00  1.338878E-10           1 
 1.450000E+01  5.000000E-01  5.000000E-01  4.018292E+00  2.394362E-06  1.028801E-04  6.474505E-06  1.915512E-04  2.701535E-15  2.100000E-01  1.500000E-01  0.000000E+00  9.124274E-33 -1.950927E-31  0.000000E+00  6.360000E-03  6.360000E-03  6.360000E-03  4.742207E-23  4.946205E-19  5.158978E-15  3.637938E-18  3.637938E-18  6.959270E-13  3.061826E-11  1.009885E-10  0.000000E+00 -4.990390E-09  0.000000E+00  0.000000E+00  2.455727E+02  0.000000E+00 -1.023907E-10  0.000000E+00  0.000000E+00  1.323079E-10           1 
 1.550000E+01  5.000000E-01  5.000000E-01  4.234962E+00  1.494795E-06  6.260913E-05  4.302915E-06  1.896808E-04  1.852628E-15  2.100000E-01  1.500000E-01  0.000000E+00  8.937530E-33 -1.663910E-31  0.000000E+00  6.360000E-03  6.360000E-03  6.360000E-03  3.122391E-23  5.363507E-19  9.213199E-15  1.069971E-17  1.069971E-17  1.242826E-12  2.015985E-11  1.095088E-10  0.000000E+00 -8.970888E-09  0.000000E+00  0.000000E+00  3.543440E+02  0.000000E+00 -1.120129E-10  0.000000E+00  0.000000E+00  1.309207E-10           1 
 1.650000E+01  5.000000E-01  5.000000E-01  4.470763E+00  9.116518E-07  3.663750E-05  2.926576E-06  1.885159E-04  1.260854E-15  2.100000E-01  1.500000E-01  0.000000E+00  8.821228E-33  5.811804E-32  0.000000E+00  6.360000E-03  6.360000E-03  6.360000E-03  1.907453E-23  5.639198E-19  1.667173E-14  3.332300E-17  3.332300E-17  2.248955E-12  1.231555E-11  1.151376E-10  0.000000E+00 -1.637801E-08  0.000000E+00  0.000000E+00  5.158738E+02  0.000000E+00 -1.196691E-10  0.000000E+00  0.000000E+00  1.297189E-10           1 
 1.750000E+01  5.000000E-01  5.000000E-01  4.726728E+00  5.493566E-07  2.066698E-05  2.105943E-06  1.878274E-04  8.868809E-16  2.100000E-01  1.500000E-01  0.000000E+00  8.752487E-33  1.918987E-30  0.000000E+00  6.360000E-03  6.360000E-03  6.360000E-03  1.079948E-23  5.756127E-19  3.068018E-14  1.105568E-16  1.105568E-16  4.138643E-12  6.972729E-12  1.175250E-10  0.000000E+00 -3.053731E-08  0.000000E+00  0.000000E+00  7.274580E+02  0.000000E+00 -1.258643E-10  0.000000E+00  0.000000E+00  1.286673E-10           1 
 1.850000E+01  5.000000E-01  5.000000E-01  5.006287E+00  3.312292E-07  1.126466E-05  1.644935E-06  1.874398E-04  6.799170E-16  2.100000E-01  1.500000E-01  0.000000E+00  8.713792E-33  1.699460E-29  0.000000E+00  6.360000E-03  6.360000E-03  6.360000E-03  5.610354E-24  5.692157E-19  5.775152E-14  3.961412E-16  3.961412E-16  7.790466E-12  3.622349E-12  1.162189E-10  0.000000E+00 -5.872057E-08  0.000000E+00  0.000000E+00  9.416879E+02  0.000000E+00 -1.319177E-10  0.000000E+00  0.000000E+00  1.276903E-10           1 
 1.950000E+01  5.000000E-01  5.000000E-01  5.318500E+00  2.008298E-07  5.941141E-06  1.398897E-06  1.872314E-04  5.989845E-16  2.100000E-01  1.500000E-01  0.000000E+00  8.692984E-33  1.160170E-28  0.000000E+00  6.360000E-03  6.360000E-03  6.360000E-03  2.581724E-24  5.375386E-19  1.119205E-13  1.575467E-15  1.575467E-15  1.509765E-11  1.666901E-12  1.097513E-10  0.000000E+00 -1.183099E-07  0.000000E+00  0.000000E+00  1.060057E+03  0.000000E+00 -1.401799E-10  0.000000E+00  0.000000E+00  1.266309E-10           1 
 2.050000E+01  5.000000E-01  5.000000E-01  5.690872E+00  1.197570E-07  3.022654E-06  1.270649E-06  1.871240E-04  6.305756E-16  2.100000E-01  1.500000E-01  0.000000E+00  8.682265E-33  4.280011E-28  0.000000E+00  6.360000E-03  6.360000E-03  6.360000E-03  9.361591E-25  4.594323E-19  2.254724E-13  7.481097E-15  7.481097E-15  3.041539E-11  6.044351E-13  9.380404E-11  0.000000E+00 -2.573441E-07  0.000000E+00  0.000000E+00  9.944919E+02  0.000000E+00 -1.551307E-10  0.000000E+00  0.000000E+00  1.250643E-10           1 
 2.150000E+01  5.000000E-01  5.000000E-01  6.236344E+00  6.653617E-08  1.443187E-06  1.194470E-06  1.870709E-04  8.066631E-16  2.100000E-01  1.500000E-01  0.000000E+00  8.676963E-33  3.863932E-28  0.000000E+00  6.360000E-03  6.360000E-03  6.360000E-03  1.600739E-25  2.758447E-19  4.753449E-13  5.538000E-14  5.538000E-14  6.412226E-11  1.033524E-13  5.632026E-11  0.000000E+00 -6.457135E-07  0.000000E+00  0.000000E+00  7.529596E+02  0.000000E+00 -1.858477E-10  0.000000E+00  0.000000E+00  1.211320E-10           1 
 2.250000E+01  5.000000E-01  5.000000E-01  6.922670E+00  3.421321E-08  6.394493E-07  1.107797E-06  1.870456E-04  9.725809E-16  2.100000E-01  1.500000E-01  0.000000E+00  8.674439E-33  3.791955E-29  0.000000E+00  6.360000E-03  6.360000E-03  6.360000E-03  1.029920E-26  8.619332E-20  7.213465E-13  4.081447E-13  4.081447E-13  9.730696E-11  6.649720E-15  1.759842E-11  0.000000E+00 -1.694578E-06  0.000000E+00  0.000000E+00  6.003680E+02  0.000000E+00 -2.161039E-10  0.000000E+00  0.000000E+00  1.164497E-10           1 
 2.350000E+01  5.000000E-01  5.000000E-01  7.268655E+00  1.858953E-08  2.804450E-07  1.047570E-06  1.870340E-04  9.958005E-16  2.100000E-01  1.500000E-01  0.000000E+00  8.673281E-33  3.593046E-30  0.000000E+00  6.360000E-03  6.360000E-03  6.360000E-03  2.249047E-27  4.174968E-20  7.750108E-13  9.726629E-13  9.726629E-13  1.045461E-10  1.452107E-15  8.524190E-12  0.000000E+00 -4.022947E-06  0.000000E+00  0.000000E+00  5.830576E+02  0.000000E+00 -2.250023E-10  0.000000E+00  0.000000E+00  1.157921E-10           1 
 2.450000E+01  5.000000E-01  5.000000E-01  7.408439E+00  1.155713E-08  1.271397E-07  1.019519E-06  1.870289E-04  9.988133E-16  2.100000E-01  1.500000E-01  0.000000E+00  8.672767E-33  6.772155E-31  0.000000E+00  6.360000E-03  6.360000E-03  6.360000E-03  1.197286E-27  3.066456E-20  7.853719E-13  1.359922E-12  1.359922E-12  1.059437E-10  7.730330E-16  6.260899E-12  0.000000E+00 -8.987268E-06  0.000000E+00  0.000000E+00  5.808901E+02  0.000000E+00 -2.278787E-10  0.000000E+00  0.000000E+00  1.157106E-10           1 
 2.550000E+01  5.000000E-01  5.000000E-01  7.464184E+00  8.557658E-09  6.352710E-08  1.007663E-06  1.870267E-04  9.995694E-16  2.100000E-01  1.500000E-01  0.000000E+00  8.672546E-33  1.883398E-31  0.000000E+00  6.360000E-03  6.360000E-03  6.360000E-03  9.291756E-28  2.705710E-20  7.878887E-13  1.551131E-12  1.551131E-12  1.062833E-10  5.999261E-16  5.524352E-12  0.000000E+00 -1.807304E-05  0.000000E+00  0.000000E+00  5.803891E+02  0.000000E+00 -2.289734E-10  0.000000E+00  0.000000E+00  1.156984E-10           1 
 2.650000E+01  5.000000E-01  5.000000E-01  7.486241E+00  7.340699E-09  3.782432E-08  1.002903E-06  1.870257E-04  9.998350E-16  2.100000E-01  1.500000E-01  0.000000E+00  8.672454E-33  6.221888E-32  0.000000E+00  6.360000E-03  6.360000E-03  6.360000E-03  8.402265E-28  2.574170E-20  7.886390E-13  1.633500E-12  1.633500E-12  1.063845E-10  5.424958E-16  5.255781E-12  0.000000E+00 -3.041116E-05  0.000000E+00  0.000000E+00  5.802253E+02  0.000000E+00 -2.294030E-10  0.000000E+00  0.000000E+00  1.156964E-10           1 
 2.750000E+01  5.000000E-01  5.000000E-01  7.494829E+00  6.866421E-09  2.771573E-08  1.001065E-06  1.870254E-04  9.999367E-16  2.100000E-01  1.500000E-01  0.000000E+00  8.672417E-33  2.184045E-32  0.000000E+00  6.360000E-03  6.360000E-03  6.360000E-03  8.079039E-28  2.524580E-20  7.888939E-13  1.666664E-12  1.666664E-12  1.064189E-10  5.216266E-16  5.154531E-12  0.000000E+00 -4.153305E-05  0.000000E+00  0.000000E+00  5.801648E+02  0.000000E+00 -2.295700E-10  0.000000E+00  0.000000E+00  1.156961E-10           1 
 2.850000E+01  5.000000E-01  5.000000E-01  7.498102E+00  6.687529E-09  2.384545E-08  1.000380E-06  1.870252E-04  9.999759E-16  2.100000E-01  1.500000E-01  0.000000E+00  8.672403E-33  7.746359E-33  0.000000E+00  6.360000E-03  6.360000E-03  6.360000E-03  7.959131E-28  2.505921E-20  7.889856E-13  1.679464E-12  1.679464E-12  1.064312E-10  5.138846E-16  5.116434E-12  0.000000E+00 -4.828753E-05  0.000000E+00  0.000000E+00  5.801418E+02  0.000000E+00 -2.296336E-10  0.000000E+00  0.000000E+00  1.156961E-10           1 
 2.950000E+01  5.000000E-01  5.000000E-01  7.499319E+00  6.621942E-09  2.240172E-08  1.000131E-06  1.870252E-04  9.999908E-16  2.100000E-01  1.500000E-01  0.000000E+00  8.672397E-33  2.719690E-33  0.000000E+00  6.360000E-03  6.360000E-03  6.360000E-03  7.914967E-28  2.499012E-20  7.890190E-13  1.684250E-12  1.684250E-12  1.064357E-10  5.110332E-16  5.102327E-12  0.000000E+00 -5.140483E-05  0.000000E+00  0.000000E+00  5.801332E+02  0.000000E+00 -2.296573E-10  0.000000E+00  0.000000E+00  1.156961E-10           1 
 3.050000E+01  5.000000E-01  5.000000E-01  7.499761E+00  6.598509E-09  2.187645E-08  1.000044E-06  1.870252E-04  9.999963E-16  2.100000E-01  1.500000E-01  0.000000E+00  8.672395E-33  9.380369E-34  0.000000E+00  6.360000E-03  6.360000E-03  6.360000E-03  7.898985E-28  2.496506E-20  7.890310E-13  1.685992E-12  1.685992E-12  1.064373E-10  5.100013E-16  5.097212E-12  0.000000E+00 -5.264108E-05  0.000000E+00  0.000000E+00  5.801299E+02  0.000000E+00 -2.296659E-10  0.000000E+00  0.000000E+00  1.156961E-10           1 
 3.150000E+01  5.000000E-01  5.000000E-01  7.499918E+00  6.590335E-09  2.168984E-08  1.000014E-06  1.870251E-04  9.999984E-16  2.100000E-01  1.500000E-01  0.000000E+00  8.672394E-33  3.169577E-34  0.000000E+00  6.360000E-03  6.360000E-03  6.360000E-03  7.893322E-28  2.495618E-20  7.890352E-13  1.686610E-12  1.686610E-12  1.064379E-10  5.096356E-16  5.095398E-12  0.000000E+00 -5.309467E-05  0.000000E+00  0.000000E+00  5.801288E+02  0.000000E+00 -2.296690E-10  0.000000E+00  0.000000E+00  1.156961E-10           1 
 3.250000E+01  5.000000E-01  5.000000E-01  7.499973E+00  6.587547E-09  2.162505E-08  1.000004E-06  1.870251E-04  9.999991E-16  2.100000E-01  1.500000E-01  0.000000E+00  8.672394E-33  1.047055E-34  0.000000E+00  6.360000E-03  6.360000E-03  6.360000E-03  7.891358E-28  2.495310E-20  7.890367E-13  1.686825E-12  1.686825E-12  1.064381E-10  5.095088E-16  5.094769E-12  0.000000E+00 -5.325400E-05  0.000000E+00  0.000000E+00  5.801283E+02  0.000000E+00 -2.296700E-10  0.000000E+00  0.000000E+00  1.156961E-10           1 
 3.350000E+01  5.000000E-01  5.000000E-01  7.499991E+00  6.586616E-09  2.160304E-08  1.000001E-06  1.870251E-04  9.999994E-16  2.100000E-01  1.500000E-01  0.000000E+00  8.672394E-33  3.362848E-35  0.000000E+00  6.360000E-03  6.360000E-03  6.360000E-03  7.890691E-28  2.495205E-20  7.890372E-13  1.686897E-12  1.686897E-12  1.064382E-10  5.094658E-16  5.094555E-12  0.000000E+00 -5.330835E-05  0.000000E+00  0.000000E+00  5.801282E+02  0.000000E+00 -2.296704E-10  0.000000E+00  0.000000E+00  1.156961E-10           1 
 3.450000E+01  5.000000E-01  5.000000E-01  7.499997E+00  6.586311E-09  2.159571E-08  1.000000E-06  1.870251E-04  9.999994E-16  2.100000E-01  1.500000E-01  0.000000E+00  8.672394E-33  1.029467E-35  0.000000E+00  6.360000E-03  6.360000E-03  6.360000E-03  7.890470E-28  2.495170E-20  7.890374E-13  1.686922E-12  1.686922E-12  1.064382E-10  5.094515E-16  5.094484E-12  0.000000E+00 -5.332645E-05  0.000000E+00  0.000000E+00  5.801281E+02  0.000000E+00 -2.296705E-10  0.000000E+00  0.000000E+00  1.156961E-10           1 
 3.550000E+01  5.000000E-01  5.000000E-01  7.499999E+00  6.586213E-09  2.159333E-08  9.999998E-07  1.870251E-04  9.999995E-16  2.100000E-01  1.500000E-01  0.000000E+00  8.672394E-33  2.779328E-36  0.000000E+00  6.360000E-03  6.360000E-03  6.360000E-03  7.890397E-28  2.495159E-20  7.890374E-13  1.686930E-12  1.686930E-12  1.064382E-10  5.094468E-16  5.094461E-12  0.000000E+00 -5.333236E-05  0.000000E+00  0.000000E+00  5.801281E+02  0.000000E+00 -2.296705E-10  0.000000E+00  0.000000E+00  1.156961E-10           1 
 3.650000E+01  5.000000E-01  5.000000E-01  7.500000E+00  6.586183E-09  2.159256E-08  9.999997E-07  1.870251E-04  9.999995E-16  2.100000E-01  1.500000E-01  0.000000E+00  8.672394E-33  4.027026E-37  0.000000E+00  6.360000E-03  6.360000E-03  6.360000E-03  7.890374E-28  2.495155E-20  7.890374E-13  1.686932E-12  1.686932E-12  1.064382E-10  5.094453E-16  5.094453E-12  0.000000E+00 -5.333424E-05  0.000000E+00  0.000000E+00  5.801281E+02  0.000000E+00 -2.296706E-10  0.000000E+00  0.000000E+00  1.156961E-10           1 
 3.750000E+01  5.000000E-01  5.000000E-01  7.500000E+00  6.586173E-09  2.159232E-08  9.999997E-07  1.870251E-04  9.999995E-16  2.100000E-01  1.500000E-01  0.000000E+00  8.672394E-33 -3.357834E-37  0.000000E+00  6.360000E-03  6.360000E-03  6.360000E-03  7.890367E-28  2.495154E-20  7.890374E-13  1.686933E-12  1.686933E-12  1.064382E-10  5.094449E-16  5.094451E-12  0.000000E+00 -5.333484E-05  0.000000E+00  0.000000E+00  5.801281E+02  0.000000E+00 -2.296706E-10  0.000000E+00  0.000000E+00  1.156961E-10           1 
 3.850000E+01  5.000000E-01  5.000000E-01  7.500000E+00  6.586170E-09  2.159225E-08  9.999997E-07  1.870251E-04  9.999995E-16  2.100000E-01  1.500000E-01  0.000000E+00  8.672394E-33 -5.614056E-37  0.000000E+00  6.360000E-03  6.360000E-03  6.360000E-03  7.890365E-28  2.495154E-20  7.890374E-13  1.686933E-12  1.686933E-12  1.064382E-10  5.094447E-16  5.094450E-12  0.000000E+00 -5.333502E-05  0.000000E+00  0.000000E+00  5.801281E+02  0.000000E+00 -2.296706E-10  0.000000E+00  0.000000E+00  1.156961E-10           1 
 3.950000E+01  5.000000E-01  5.000000E-01  7.500000E+00  6.586169E-09  2.159223E-08  9.999997E-07  1.870251E-04  9.999995E-16  2.100000E-01  1.500000E-01  0.000000E+00  8.672394E-33 -6.292221E-37  0.000000E+00  6.360000E-03  6.360000E-03  6.360000E-03  7.890364E-28  2.495154E-20  7.890374E-13  1.686933E-12  1.686933E-12  1.064382E-10  5.094447E-16  5.094450E-12  0.000000E+00 -5.333507E-05  0.000000E+00  0.000000E+00  5.801281E+02  0.000000E+00 -2.296706E-10  0.000000E+00  0.000000E+00  1.156961E-10           1 
 4.050000E+01  5.000000E-01  5.000000E-01  7.500000E+00  6.586169E-09  2.159222E-08  9.999997E-07  1.870251E-04  9.999995E-16  2.100000E-01  1.500000E-01  0.000000E+00  8.672394E-33 -6.492866E-37  0.000000E+00  6.360000E-03  6.360000E-03  6.360000E-03  7.890364E-28  2.495154E-20  7.890374E-13  1.686933E-12  1.686933E-12  1.064382E-10  5.094447E-16  5.094450E-12  0.000000E+00 -5.333509E-05  0.000000E+00  0.000000E+00  5.801281E+02  0.000000E+00 -2.296706E-10  0.000000E+00  0.000000E+00  1.156961E-10           1 
 4.150000E+01  5.000000E-01  5.000000E-01  7.500000E+00  6.586169E-09  2.159222E-08  9.999997E-07  1.870251E-04  9.999995E-16  2.100000E-01  1.500000E-01  0.000000E+00  8.672394E-33 -6.551326E-37  0.000000E+00  6.360000E-03  6.360000E-03  6.360000E-03  7.890364E-28  2.495154E-20  7.890374E-13  1.686933E-12  1.686933E-12  1.064382E-10  5.094447E-16  5.094450E-12  0.000000E+00 -5.333510E-05  0.000000E+00  0.000000E+00  5.801281E+02  0.000000E+00 -2.296706E-10  0.000000E+00  0.000000E+00  1.156961E-10           1 
 4.250000E+01  5.000000E-01  5.000000E-01  7.500000E+00  6.586169E-09  2.159222E-08  9.999997E-07  1.870251E-04  9.999995E-16  2.100000E-01  1.500000E-01  0.000000E+00  8.672394E-33 -6.568107E-37  0.000000E+00  6.360000E-03  6.360000E-03  6.360000E-03  7.890364E-28  2.495154E-20  7.890374E-13  1.686933E-12  1.686933E-12  1.064382E-10  5.094447E-16  5.094450E-12  0.000000E+00 -5.333510E-05  0.000000E+00  0.000000E+00  5.801281E+02  0.000000E+00 -2.296706E-10  0.000000E+00  0.000000E+00  1.156961E-10           1 
 4.350000E+01  5.000000E-01  5.000000E-01  7.500000E+00  6.586169E-09  2.159222E-08  9.999997E-07  1.870251E-04  9.999995E-16  2.100000E-01  1.500000E-01  0.000000E+00  8.672394E-33 -6.572854E-37  0.000000E+00  6.360000E-03  6.360000E-03  6.360000E-03  7.890364E-28  2.495154E-20  7.890374E-13  1.686933E-12  1.686933E-12  1.064382E-10  5.094447E-16  5.094450E-12  0.000000E+00 -5.333510E-05  0.000000E+00  0.000000E+00  5.801281E+02  0.000000E+00 -2.296706E-10  0.000000E+00  0.000000E+00  1.156961E-10           1 
 4.450000E+01  5.000000E-01  5.000000E-01  7.500000E+00  6.586169E-09  2.159222E-08  9.999997E-07  1.870251E-04  9.999995E-16  2.100000E-01  1.500000E-01  0.000000E+00  8.672394E-33 -6.574178E-37  0.000000E+00  6.360000E-03  6.360000E-03  6.360000E-03  7.890364E-28  2.495154E-20  7.890374E-13  1.686933E-12  1.686933E-12  1.064382E-10  5.094447E-16  5.094450E-12  0.000000E+00 -5.333510E-05  0.000000E+00  0.000000E+00  5.801281E+02  0.000000E+00 -2.296706E-10  0.000000E+00  0.000000E+00  1.156961E-10           1 
 4.550000E+01  5.000000E-01  5.000000E-01  7.500000E+00  6.586169E-09  2.159222E-08  9.999997E-07  1.870251E-04  9.999995E-16  2.100000E-01  1.500000E-01  0.000000E+00  8.672394E-33 -6.574542E-37  0.000000E+00  6.360000E-03  6.360000E-03  6.360000E-03  7.890364E-28  2.495154E-20  7.890374E-13  1.686933E-12  1.686933E-12  1.064382E-10  5.094447E-16  5.094450E-12  0.000000E+00 -5.333510E-05  0.000000E+00  0.000000E+00  5.801281E+02  0.000000E+00 -2.296706E-10  0.000000E+00  0.000000E+00  1.156961E-10           1 
 4.650000E+01  5.000000E-01  5.000000E-01  7.500000E+00  6.586169E-09  2.159222E-08  9.999997E-07  1.870251E-04  9.999995E-16  2.100000E-01  1.500000E-01  0.000000E+00  8.672394E-33 -6.574641E-37  0.000000E+00  6.360000E-03  6.360000E-03  6.360000E-03  7.890364E-28  2.495154E-20  7.890374E-13  1.686933E-12  1.686933E-12  1.064382E-10  5.094447E-16  5.094450E-12  0.000000E+00 -5.333510E-05  0.000000E+00  0.000000E+00  5.801281E+02  0.000000E+00 -2.296706E-10  0.000000E+00  0.000000E+00  1.156961E-10           1 
 4.750000E+01  5.000000E-01  5.000000E-01  7.500000E+00  6.586169E-09  2.159222E-08  9.999997E-07  1.870251E-04  9.999995E-16  2.100000E-01  1.500000E-01  0.000000E+00  8.672394E-33 -6.574667E-37  0.000000E+00  6.360000E-03  6.360000E-03  6.360000E-03  7.890364E-28  2.495154E-20  7.890374E-13  1.686933E-12  1.686933E-12  1.064382E-10  5.094447E-16  5.094450E-12  0.000000E+00 -5.333510E-05  0.000000E+00  0.000000E+00  5.801281E+02  0.000000E+00 -2.296706E-10  0.000000E+00  0.000000E+00  1.156961E-10           1 
 4.850000E+01  5.000000E-01  5.000000E-01  7.500000E+00  6.586169E-09  2.159222E-08  9.999997E-07  1.870251E-04  9.999995E-16  2.100000E-01  1.500000E-01  0.000000E+00  8.672394E-33 -6.574674E-37  0.000000E+00  6.360000E-03  6.360000E-03  6.360000E-03  7.890364E-28  2.495154E-20  7.890374E-13  1.686933E-12  1.686933E-12  1.064382E-10  5.094447E-16  5.094450E-12  0.000000E+00 -5.333510E-05  0.000000E+00  0.000000E+00  5.801281E+02  0.000000E+00 -2.296706E-10  0.000000E+00  0.000000E+00  1.156961E-10           1 
 4.950000E+01  5.000000E-01  5.000000E-01  7.500000E+00  6.586169E-09  2.159222E-08  9.999997E-07  1.870251E-04  9.999995E-16  2.100000E-01  1.500000E-01  0.000000E+00  8.672394E-33 -6.574676E-37  0.000000E+00  6.360000E-03  6.360000E-03  6.360000E-03  7.890364E-28  2.495154E-20  7.890374E-13  1.686933E-12  1.686933E-12  1.064382E-10  5.094447E-16  5.094450E-12  0.000000E+00 -5.333510E-05  0.000000E+00  0.000000E+00  5.801281E+02  0.000000E+00 -2.296706E-10  0.000000E+00  0.000000E+00  1.156961E-10           1 
 5.050000E+01  5.000000E-01  5.000000E-01  7.500000E+00  6.586169E-09  2.159222E-08  9.999997E-07  1.870251E-04  9.999995E-16  2.100000E-01  1.500000E-01  0.000000E+00  8.672394E-33 -6.574677E-37  0.000000E+00  6.360000E-03  6.360000E-03  6.360000E-03  7.890364E-28  2.495154E-20  7.890374E-13  1.686933E-12  1.686933E-12  1.064382E-10  5.094447E-16  5.094450E-12  0.000000E+00 -5.333510E-05  0.000000E+00  0.000000E+00  5.801281E+02  0.000000E+00 -2.296706E-10  0.000000E+00  0.000000E+00  1.156961E-10           1 
 5.150000E+01  5.000000E-01  5.000000E-01  7.500000E+00  6.586169E-09  2.159222E-08  9.999997E-07  1.870251E-04  9.999995E-16  2.100000E-01  1.500000E-01  0.000000E+00  8.672394E-33 -6.574677E-37  0.000000E+00  6.360000E-03  6.360000E-03  6.360000E-03  7.890364E-28  2.495154E-20  7.890374E-13  1.686933E-12  1.686933E-12  1.064382E-10  5.094447E-16  5.094450E-12  0.000000E+00 -5.333510E-05  0.000000E+00  0.000000E+00  5.801281E+02  0.000000E+00 -2.296706E-10  0.000000E+00  0.000000E+00  1.156961E-10           1 
 5.250000E+01  5.000000E-01  5.000000E-01  7.500000E+00  6.586169E-09  2.159222E-08  9.999997E-07  1.870251E-04  9.999995E-16  2.100000E-01  1.500000E-01  0.000000E+00  8.672394E-33 -6.574677E-37  0.000000E+00  6.360000E-03  6.360000E-03  6.360000E-03  7.890364E-28  2.495154E-20  7.890374E-13  1.686933E-12  1.686933E-12  1.064382E-10  5.094447E-16  5.094450E-12  0.000000E+00 -5.333510E-05  0.000000E+00  0.000000E+00  5.801281E+02  0.000000E+00 -2.296706E-10  0.000000E+00  0.000000E+00  1.156961E-10           1 
 5.350000E+01  5.000000E-01  5.000000E-01  7.500000E+00  6.586169E-09  2.159222E-08  9.999997E-07  1.870251E-04  9.999995E-16  2.100000E-01  1.500000E-01  0.000000E+00  8.672394E-33 -6.574677E-37  0.000000E+00  6.360000E-03  6.360000E-03  6.360000E-03  7.890364E-28  2.495154E-20  7.890374E-13  1.686933E-12  1.686933E-12  1.064382E-10  5.094447E-16  5.094450E-12  0.000000E+00 -5.333510E-05  0.000000E+00  0.000000E+00  5.801281E+02  0.000000E+00 -2.296706E-10  0.000000E+00  0.000000E+00  1.156961E-10           1 
 5.450000E+01  5.000000E-01  5.000000E-01  7.500000E+00  6.586169E-09  2.159222E-08  9.999997E-07  1.870251E-04  9.999995E-16  2.100000E-01  1.500000E-01  0.000000E+00  8.672394E-33 -6.574677E-37  0.000000E+00  6.360000E-03  6.360000E-03  6.360000E-03  7.890364E-28  2.495154E-20  7.890374E-13  1.686933E-12  1.686933E-12  1.064382E-10  5.094447E-16  5.094450E-12  0.000000E+00 -5.333510E-05  0.000000E+00  0.000000E+00  5.801281E+02  0.000000E+00 -2.296706E-10  0.000000E+00  0.000000E+00  1.156961E-10           1 
 5.550000E+01  5.000000E-01  5.000000E-01  7.500000E+00  6.586169E-09  2.159222E-08  9.999997E-07  1.870251E-04  9.999995E-16  2.100000E-01  1.500000E-01  0.000000E+00  8.672394E-33 -6.574677E-37  0.000000E+00  6.360000E-03  6.360000E-03  6.360000E-03  7.890364E-28  2.495154E-20  7.890374E-13  1.686933E-12  1.686933E-12  1.064382E-10  5.094447E-16  5.094450E-12  0.000000E+00 -5.333510E-05  0.000000E+00  0.000000E+00  5.801281E+02  0.000000E+00 -2.296706E-10  0.000000E+00  0.000000E+00  1.156961E-10           1 