TITLE = "  2.5000E-01 [y]"
VARIABLES="X [m]","Y [m]","Z [m]"," 4-pH"," 5-Al+++_tot_m"," 6-H+_tot_m"," 7-HPO4--_tot_m"," 8-SiO2(aq)_tot_m"," 9-UO2++_tot_m","10-Quartz_vf","11-Kaolinite_vf","12-(UO2)3(PO4)2.4H2O_vf","13-Quartz_rt","14-Kaolinite_rt","15-(UO2)3(PO4)2.4H2O_rt","16->SiOH","17->FeOH","18->AlOH","19->SiOUO3H3++","20->SiOUO3H2+","21->SiOUO3H","22->SiOUO3-","23->SiOUO2(OH)2-","24->FeOHUO3","25->FeOHUO2++","26->AlOUO2+","27-Al+++_kd","28-H+_kd","29-HPO4--_kd","30-SiO2(aq)_kd","31-UO2++_kd","32-Al+++_total_sorb","33-H+_total_sorb","34-HPO4--_total_sorb","35-SiO2(aq)_total_sorb","36-UO2++_total_sorb","37-Material_ID"
ZONE T= "  2.5000E-01", I=  100, J=    1, K=    1, DATAPACKING=POINT
 5.000000E-01  5.000000E-01  5.000000E-01  2.930000E+00  2.890870E-05  1.280702E-03  7.102790E-05  2.527990E-04  3.541346E-05  2.100000E-01  1.500000E-01  1.639645E-20  1.523919E-32 -1.999997E-31  4.987547E-24  6.359634E-03  1.218215E-04  4.302936E-04  5.043133E-13  4.292402E-10  3.653427E-07  2.102328E-11  2.102328E-11  9.440437E-07  6.237234E-03  5.929706E-03  0.000000E+00 -2.322640E-02  0.000000E+00  0.000000E+00  1.722919E+00  0.000000E+00 -5.932326E-03  0.000000E+00  0.000000E+00  1.216825E-02           1 
 1.500000E+00  5.000000E-01  5.000000E-01  2.930000E+00  2.890867E-05  1.280701E-03  7.102784E-05  2.527989E-04  3.541279E-05  2.100000E-01  1.500000E-01  1.394537E-20  1.523918E-32 -1.999997E-31  4.987226E-24  6.359634E-03  1.218242E-04  4.303025E-04  5.043017E-13  4.292307E-10  3.653348E-07  2.102284E-11  2.102284E-11  9.440445E-07  6.237232E-03  5.929697E-03  0.000000E+00 -2.322638E-02  0.000000E+00  0.000000E+00  1.722950E+00  0.000000E+00 -5.932317E-03  0.000000E+00  0.000000E+00  1.216824E-02           1 
 2.500000E+00  5.000000E-01  5.000000E-01  2.930002E+00  2.890849E-05  1.280698E-03  7.102754E-05  2.527985E-04  3.540541E-05  2.100000E-01  1.500000E-01  1.163613E-20  1.523914E-32 -1.999997E-31  4.983628E-24  6.359634E-03  1.218546E-04  4.304033E-04  5.041736E-13  4.291229E-10  3.652441E-07  2.101768E-11  2.101768E-11  9.440455E-07  6.237201E-03  5.929597E-03  0.000000E+00 -2.322604E-02  0.000000E+00  0.000000E+00  1.723290E+00  0.000000E+00 -5.932216E-03  0.000000E+00  0.000000E+00  1.216811E-02           1 
 3.500000E+00  5.000000E-01  5.000000E-01  2.930003E+00  2.890764E-05  1.280703E-03  7.102651E-05  2.527966E-04  3.534213E-05  2.100000E-01  1.500000E-01  9.149378E-21  1.523894E-32 -1.999997E-31  4.952327E-24  6.359635E-03  1.221172E-04  4.312840E-04  5.030683E-13  4.281830E-10  3.644450E-07  2.097174E-11  2.097174E-11  9.440098E-07  6.236939E-03  5.928716E-03  0.000000E+00 -2.322249E-02  0.000000E+00  0.000000E+00  1.726213E+00  0.000000E+00 -5.931333E-03  0.000000E+00  0.000000E+00  1.216696E-02           1 
 4.500000E+00  5.000000E-01  5.000000E-01  2.929986E+00  2.890471E-05  1.280800E-03  7.102244E-05  2.527898E-04  3.498476E-05  2.100000E-01  1.500000E-01  6.419949E-21  1.523827E-32 -1.999997E-31  4.776388E-24  6.359640E-03  1.236203E-04  4.363416E-04  4.968321E-13  4.228593E-10  3.599002E-07  2.070944E-11  2.070944E-11  9.437116E-07  6.235436E-03  5.923658E-03  0.000000E+00 -2.320091E-02  0.000000E+00  0.000000E+00  1.742906E+00  0.000000E+00 -5.926266E-03  0.000000E+00  0.000000E+00  1.216040E-02           1 
 5.500000E+00  5.000000E-01  5.000000E-01  2.929902E+00  2.889636E-05  1.281248E-03  7.100840E-05  2.527704E-04  3.363464E-05  2.100000E-01  1.500000E-01  3.737235E-21  1.523634E-32 -1.999997E-31  4.140679E-24  6.359657E-03  1.295943E-04  4.564042E-04  4.734766E-13  4.029031E-10  3.428489E-07  1.972444E-11  1.972444E-11  9.424424E-07  6.229463E-03  5.903596E-03  0.000000E+00 -2.311413E-02  0.000000E+00  0.000000E+00  1.808983E+00  0.000000E+00 -5.906167E-03  0.000000E+00  0.000000E+00  1.213434E-02           1 
 6.500000E+00  5.000000E-01  5.000000E-01  2.929699E+00  2.887610E-05  1.282455E-03  7.097691E-05  2.527234E-04  3.006154E-05  2.100000E-01  1.500000E-01  1.648906E-21  1.523164E-32 -1.999997E-31  2.681357E-24  6.359701E-03  1.480355E-04  5.177096E-04  4.132703E-13  3.515067E-10  2.989738E-07  1.719224E-11  1.719224E-11  9.387766E-07  6.211026E-03  5.842290E-03  0.000000E+00 -2.285230E-02  0.000000E+00  0.000000E+00  2.010689E+00  0.000000E+00 -5.844766E-03  0.000000E+00  0.000000E+00  1.205455E-02           1 
 7.500000E+00  5.000000E-01  5.000000E-01  2.929393E+00  2.883298E-05  1.284960E-03  7.088799E-05  2.526230E-04  2.217859E-05  2.100000E-01  1.500000E-01  2.969074E-22  1.522161E-32 -1.999997E-31  4.828140E-25  6.359791E-03  2.095949E-04  7.157427E-04  2.890016E-13  2.456364E-10  2.087783E-07  1.199714E-11  1.199714E-11  9.281608E-07  6.149477E-03  5.644257E-03  0.000000E+00 -2.203420E-02  0.000000E+00  0.000000E+00  2.666639E+00  0.000000E+00 -5.646532E-03  0.000000E+00  0.000000E+00  1.179487E-02           1 
 8.500000E+00  5.000000E-01  5.000000E-01  2.929624E+00  2.875080E-05  1.287477E-03  7.071106E-05  2.524313E-04  9.321159E-06  2.100000E-01  1.500000E-01  0.000000E+00  1.520247E-32 -1.999997E-31  0.000000E+00  6.359920E-03  5.184456E-04  1.578326E-03  1.109715E-13  9.437023E-11  8.025254E-08  4.614052E-12  4.614052E-12  8.824911E-07  5.840672E-03  4.781674E-03  0.000000E+00 -1.863032E-02  0.000000E+00  0.000000E+00  5.714720E+00  0.000000E+00 -4.783600E-03  0.000000E+00  0.000000E+00  1.062331E-02           1 
 9.500000E+00  5.000000E-01  5.000000E-01  2.931615E+00  2.860822E-05  1.283658E-03  7.037269E-05  2.520980E-04  1.397050E-06  2.100000E-01  1.500000E-01  0.000000E+00  1.516920E-32 -1.999997E-31  0.000000E+00  6.359989E-03  2.448388E-03  4.442757E-03  1.573496E-14  1.344253E-11  1.148409E-08  6.633028E-13  6.633028E-13  5.963763E-07  3.911016E-03  1.917243E-03  0.000000E+00 -7.493905E-03  0.000000E+00  0.000000E+00  2.092075E+01  0.000000E+00 -1.918459E-03  0.000000E+00  0.000000E+00  5.828867E-03           1 
 1.050000E+01  5.000000E-01  5.000000E-01  2.935010E+00  2.838010E-05  1.273678E-03  6.983542E-05  2.515642E-04  1.136215E-07  2.100000E-01  1.500000E-01  0.000000E+00  1.511590E-32 -1.999997E-31  0.000000E+00  6.359999E-03  5.632580E-03  6.143991E-03  1.271944E-15  1.095160E-12  9.429474E-10  5.489051E-14  5.489051E-14  1.126517E-07  7.273076E-04  2.160087E-04  0.000000E+00 -8.512811E-04  0.000000E+00  0.000000E+00  4.163458E+01  0.000000E+00 -2.162359E-04  0.000000E+00  0.000000E+00  9.434299E-04           1 
 1.150000E+01  5.000000E-01  5.000000E-01  2.940082E+00  2.803995E-05  1.258377E-03  6.902569E-05  2.507676E-04  8.401821E-09  2.100000E-01  1.500000E-01  0.000000E+00  1.503637E-32 -1.999997E-31  0.000000E+00  6.360000E-03  6.299584E-03  6.343244E-03  9.445549E-17  8.228291E-14  7.167903E-11  4.221576E-15  4.221576E-15  9.577384E-09  6.040626E-05  1.675575E-05  0.000000E+00 -6.684332E-05  0.000000E+00  0.000000E+00  4.605634E+01  0.000000E+00 -1.677505E-05  0.000000E+00  0.000000E+00  7.717167E-05           1 
 1.250000E+01  5.000000E-01  5.000000E-01  2.947308E+00  2.756314E-05  1.236894E-03  6.788214E-05  2.496507E-04  6.095089E-10  2.100000E-01  1.500000E-01  0.000000E+00  1.492487E-32 -1.999996E-31  0.000000E+00  6.360000E-03  6.355547E-03  6.358752E-03  6.900988E-18  6.112504E-15  5.414109E-12  3.242163E-16  3.242163E-16  7.298318E-10  4.452532E-06  1.247768E-06  0.000000E+00 -5.064283E-06  0.000000E+00  0.000000E+00  4.690064E+01  0.000000E+00 -1.249239E-06  0.000000E+00  0.000000E+00  5.701036E-06           1 
 1.350000E+01  5.000000E-01  5.000000E-01  2.957114E+00  2.693020E-05  1.208370E-03  6.635626E-05  2.481687E-04  4.451549E-11  2.100000E-01  1.500000E-01  0.000000E+00  1.477690E-32 -1.999996E-31  0.000000E+00  6.360000E-03  6.359671E-03  6.359906E-03  5.088805E-19  4.610309E-16  4.176805E-13  2.558341E-17  2.558341E-17  5.634064E-11  3.285439E-07  9.412903E-08  0.000000E+00 -3.910680E-07  0.000000E+00  0.000000E+00  4.761641E+01  0.000000E+00 -9.424255E-08  0.000000E+00  0.000000E+00  4.227297E-07           1 
 1.450000E+01  5.000000E-01  5.000000E-01  2.969879E+00  2.612960E-05  1.172286E-03  6.441908E-05  2.462956E-04  3.070704E-12  2.100000E-01  1.500000E-01  0.000000E+00  1.458990E-32 -1.999995E-31  0.000000E+00  6.360000E-03  6.359977E-03  6.359993E-03  3.553904E-20  3.315774E-17  3.093600E-14  1.951387E-18  1.951387E-18  4.173136E-12  2.294585E-08  6.769934E-09  0.000000E+00 -2.899312E-08  0.000000E+00  0.000000E+00  4.853061E+01  0.000000E+00 -6.778342E-09  0.000000E+00  0.000000E+00  2.971999E-08           1 
 1.550000E+01  5.000000E-01  5.000000E-01  2.985914E+00  2.515947E-05  1.128560E-03  6.206545E-05  2.440290E-04  5.526163E-13  2.100000E-01  1.500000E-01  0.000000E+00  1.436360E-32 -1.999995E-31  0.000000E+00  6.360000E-03  6.359996E-03  6.359999E-03  6.493953E-21  6.286701E-18  6.086064E-15  3.983365E-19  3.983365E-19  8.209869E-13  4.192846E-09  1.283579E-09  0.000000E+00 -5.710346E-09  0.000000E+00  0.000000E+00  4.969859E+01  0.000000E+00 -1.285234E-09  0.000000E+00  0.000000E+00  5.477252E-09           1 
 1.650000E+01  5.000000E-01  5.000000E-01  3.005452E+00  2.402809E-05  1.077565E-03  5.931520E-05  2.413901E-04  3.439702E-14  2.100000E-01  1.500000E-01  0.000000E+00  1.410014E-32 -1.999994E-31  0.000000E+00  6.360000E-03  6.360000E-03  6.360000E-03  4.116142E-22  4.168142E-19  4.220798E-16  2.889660E-20  2.889660E-20  5.693700E-14  2.657604E-10  8.510253E-11  0.000000E+00 -3.965418E-10  0.000000E+00  0.000000E+00  5.115556E+01  0.000000E+00 -8.521725E-11  0.000000E+00  0.000000E+00  3.509203E-10           1 
 1.750000E+01  5.000000E-01  5.000000E-01  3.028652E+00  2.275306E-05  1.020097E-03  5.621122E-05  2.384224E-04  1.314083E-14  2.100000E-01  1.500000E-01  0.000000E+00  1.380384E-32 -1.999992E-31  0.000000E+00  6.360000E-03  6.360000E-03  6.360000E-03  1.605830E-22  1.715344E-19  1.832327E-16  1.323289E-20  1.323289E-20  2.471741E-14  1.036811E-10  3.502283E-11  0.000000E+00 -1.723978E-10  0.000000E+00  0.000000E+00  5.293573E+01  0.000000E+00 -3.507263E-11  0.000000E+00  0.000000E+00  1.387288E-10           1 
 1.850000E+01  5.000000E-01  5.000000E-01  3.055597E+00  2.135960E-05  9.572933E-04  5.281522E-05  2.351865E-04  1.174538E-14  2.100000E-01  1.500000E-01  0.000000E+00  1.348078E-32 -1.999990E-31  0.000000E+00  6.360000E-03  6.360000E-03  6.360000E-03  1.469528E-22  1.670223E-19  1.898329E-16  1.458708E-20  1.458708E-20  2.560775E-14  9.488067E-11  3.410159E-11  0.000000E+00 -1.788921E-10  0.000000E+00  0.000000E+00  5.507501E+01  0.000000E+00 -3.415318E-11  0.000000E+00  0.000000E+00  1.290081E-10           1 
 1.950000E+01  5.000000E-01  5.000000E-01  3.086308E+00  1.987814E-05  8.905239E-04  4.920181E-05  2.317549E-04  1.111992E-14  2.100000E-01  1.500000E-01  0.000000E+00  1.313817E-32 -1.999987E-31  0.000000E+00  6.360000E-03  6.360000E-03  6.360000E-03  1.427673E-22  1.741554E-19  2.124442E-16  1.752075E-20  1.752075E-20  2.865793E-14  9.217833E-11  3.555796E-11  0.000000E+00 -2.005400E-10  0.000000E+00  0.000000E+00  5.761236E+01  0.000000E+00 -3.561570E-11  0.000000E+00  0.000000E+00  1.277652E-10           1 
 2.050000E+01  5.000000E-01  5.000000E-01  3.120752E+00  1.834183E-05  8.212773E-04  4.545220E-05  2.282055E-04  1.055067E-14  2.100000E-01  1.500000E-01  0.000000E+00  1.278379E-32 -1.999983E-31  0.000000E+00  6.360000E-03  6.360000E-03  6.360000E-03  1.392588E-22  1.838970E-19  2.428435E-16  2.168096E-20  2.168096E-20  3.275869E-14  8.991300E-11  3.754694E-11  0.000000E+00 -2.296426E-10  0.000000E+00  0.000000E+00  6.059142E+01  0.000000E+00 -3.761294E-11  0.000000E+00  0.000000E+00  1.274929E-10           1 
 2.150000E+01  5.000000E-01  5.000000E-01  3.158853E+00  1.678440E-05  7.510480E-04  4.164807E-05  2.246154E-04  1.018565E-14  2.100000E-01  1.500000E-01  0.000000E+00  1.242536E-32 -1.999976E-31  0.000000E+00  6.360000E-03  6.360000E-03  6.360000E-03  1.383982E-22  1.995185E-19  2.876311E-16  2.803422E-20  2.803422E-20  3.880036E-14  8.935738E-11  4.073644E-11  0.000000E+00 -2.724916E-10  0.000000E+00  0.000000E+00  6.406242E+01  0.000000E+00 -4.081462E-11  0.000000E+00  0.000000E+00  1.301329E-10           1 
 2.250000E+01  5.000000E-01  5.000000E-01  3.200497E+00  1.523733E-05  6.812486E-04  3.786639E-05  2.210569E-04  1.261456E-14  2.100000E-01  1.500000E-01  0.000000E+00  1.207008E-32 -1.999966E-31  0.000000E+00  6.360000E-03  6.360000E-03  6.360000E-03  1.765876E-22  2.801928E-19  4.445841E-16  4.769257E-20  4.769257E-20  5.997274E-14  1.140145E-10  5.720804E-11  0.000000E+00 -4.219615E-10  0.000000E+00  0.000000E+00  6.808435E+01  0.000000E+00 -5.732887E-11  0.000000E+00  0.000000E+00  1.712830E-10           1 
 2.350000E+01  5.000000E-01  5.000000E-01  3.245541E+00  1.372869E-05  6.131411E-04  3.417596E-05  2.175932E-04  8.770929E-15  2.100000E-01  1.500000E-01  0.000000E+00  1.172427E-32 -1.999949E-31  0.000000E+00  6.360000E-03  6.360000E-03  6.360000E-03  1.265256E-22  2.226993E-19  3.919759E-16  4.664445E-20  4.664445E-20  5.287610E-14  8.169178E-11  4.546936E-11  0.000000E+00 -3.727176E-10  0.000000E+00  0.000000E+00  7.272701E+01  0.000000E+00 -4.557590E-11  0.000000E+00  0.000000E+00  1.272144E-10           1 
 2.450000E+01  5.000000E-01  5.000000E-01  3.293803E+00  1.228512E-05  5.478037E-04  3.063435E-05  2.142767E-04  7.663640E-15  2.100000E-01  1.500000E-01  0.000000E+00  1.139316E-32 -1.999921E-31  0.000000E+00  6.360000E-03  6.360000E-03  6.360000E-03  1.138842E-22  2.240097E-19  4.406260E-16  5.859672E-20  5.859672E-20  5.943881E-14  7.352983E-11  4.573691E-11  0.000000E+00 -4.197422E-10  0.000000E+00  0.000000E+00  7.807415E+01  0.000000E+00 -4.585667E-11  0.000000E+00  0.000000E+00  1.193266E-10           1 
 2.550000E+01  5.000000E-01  5.000000E-01  3.344909E+00  1.092862E-05  4.862769E-04  2.728644E-05  2.111481E-04  1.794780E-14  2.100000E-01  1.500000E-01  0.000000E+00  1.108080E-32 -1.999876E-31  0.000000E+00  6.360000E-03  6.360000E-03  6.360000E-03  2.745398E-22  6.074558E-19  1.344077E-15  2.010636E-19  2.010636E-19  1.813110E-13  1.772578E-10  1.240266E-10  0.000000E+00 -1.282665E-09  0.000000E+00  0.000000E+00  8.422357E+01  0.000000E+00 -1.243919E-10  0.000000E+00  0.000000E+00  3.014670E-10           1 
 2.650000E+01  5.000000E-01  5.000000E-01  3.398356E+00  9.685391E-06  4.293772E-04  2.416373E-05  2.082359E-04  1.316394E-14  2.100000E-01  1.500000E-01  0.000000E+00  1.079005E-32 -1.999799E-31  0.000000E+00  6.360000E-03  6.360000E-03  6.360000E-03  2.070701E-22  5.181715E-19  1.296670E-15  2.193743E-19  2.193743E-19  1.749160E-13  1.336957E-10  1.057970E-10  0.000000E+00 -1.239606E-09  0.000000E+00  0.000000E+00  9.129163E+01  0.000000E+00 -1.061495E-10  0.000000E+00  0.000000E+00  2.396690E-10           1 
 2.750000E+01  5.000000E-01  5.000000E-01  3.454192E+00  8.542401E-06  3.770709E-04  2.128566E-05  2.055581E-04  1.212568E-14  2.100000E-01  1.500000E-01  0.000000E+00  1.052270E-32 -1.999667E-31  0.000000E+00  6.360000E-03  6.360000E-03  6.360000E-03  1.958498E-22  5.573341E-19  1.586017E-15  3.051408E-19  3.051408E-19  2.139479E-13  1.264513E-10  1.137930E-10  0.000000E+00 -1.518937E-09  0.000000E+00  0.000000E+00  9.943552E+01  0.000000E+00 -1.142241E-10  0.000000E+00  0.000000E+00  2.404598E-10           1 
 2.850000E+01  5.000000E-01  5.000000E-01  3.512326E+00  7.502468E-06  3.294207E-04  1.866172E-05  2.031228E-04  5.914392E-15  2.100000E-01  1.500000E-01  0.000000E+00  1.027956E-32 -1.999436E-31  0.000000E+00  6.360000E-03  6.360000E-03  6.360000E-03  9.789068E-23  3.184691E-19  1.036080E-15  2.278869E-19  2.278869E-19  1.397634E-13  6.320353E-11  6.502305E-11  0.000000E+00 -9.940273E-10  0.000000E+00  0.000000E+00  1.088303E+02  0.000000E+00 -6.530465E-11  0.000000E+00  0.000000E+00  1.283674E-10           1 
 2.950000E+01  5.000000E-01  5.000000E-01  3.573045E+00  6.555219E-06  2.861161E-04  1.629295E-05  2.009302E-04  5.442516E-15  2.100000E-01  1.500000E-01  0.000000E+00  1.006066E-32 -1.999020E-31  0.000000E+00  6.360000E-03  6.360000E-03  6.360000E-03  9.205815E-23  3.444351E-19  1.288702E-15  3.259851E-19  3.259851E-19  1.738411E-13  5.943774E-11  7.032462E-11  0.000000E+00 -1.238591E-09  0.000000E+00  0.000000E+00  1.197126E+02  0.000000E+00 -7.067489E-11  0.000000E+00  0.000000E+00  1.299375E-10           1 
 3.050000E+01  5.000000E-01  5.000000E-01  3.636385E+00  5.758066E-06  2.470717E-04  1.417777E-05  1.989741E-04  2.724441E-14  2.100000E-01  1.500000E-01  0.000000E+00  9.865360E-33 -1.998218E-31  0.000000E+00  6.360000E-03  6.360000E-03  6.360000E-03  4.693372E-22  2.031746E-18  8.795368E-15  2.574178E-18  2.574178E-18  1.186462E-12  3.030295E-10  4.148293E-10  0.000000E+00 -8.467340E-09  0.000000E+00  0.000000E+00  1.323394E+02  0.000000E+00 -4.172199E-10  0.000000E+00  0.000000E+00  7.190541E-10           1 
 3.150000E+01  5.000000E-01  5.000000E-01  3.702123E+00  5.088477E-06  2.122222E-04  1.230445E-05  1.972434E-04  4.865107E-15  2.100000E-01  1.500000E-01  0.000000E+00  9.692578E-33 -1.996618E-31  0.000000E+00  6.360000E-03  6.360000E-03  6.360000E-03  8.505044E-23  4.283505E-19  2.157356E-15  7.345893E-19  7.345893E-19  2.910194E-13  5.491317E-11  8.745794E-11  0.000000E+00 -2.080250E-09  0.000000E+00  0.000000E+00  1.470374E+02  0.000000E+00 -8.804429E-11  0.000000E+00  0.000000E+00  1.426643E-10           1 
 3.250000E+01  5.000000E-01  5.000000E-01  3.769829E+00  4.483260E-06  1.814874E-04  1.065385E-05  1.957239E-04  3.569506E-15  2.100000E-01  1.500000E-01  0.000000E+00  9.540873E-33 -1.993453E-31  0.000000E+00  6.360000E-03  6.360000E-03  6.360000E-03  6.310086E-23  3.714194E-19  2.186219E-15  8.700074E-19  8.700074E-19  2.949129E-13  4.074134E-11  7.583410E-11  0.000000E+00 -2.111606E-09  0.000000E+00  0.000000E+00  1.641759E+02  0.000000E+00 -7.642830E-11  0.000000E+00  0.000000E+00  1.168725E-10           1 
 3.350000E+01  5.000000E-01  5.000000E-01  3.839872E+00  4.007693E-06  1.544191E-04  9.217223E-06  1.943991E-04  3.409630E-15  2.100000E-01  1.500000E-01  0.000000E+00  9.408601E-33 -1.986583E-31  0.000000E+00  6.360000E-03  6.360000E-03  6.360000E-03  6.066598E-23  4.195820E-19  2.901940E-15  1.356938E-18  1.356938E-18  3.914610E-13  3.916925E-11  8.566764E-11  0.000000E+00 -2.807379E-09  0.000000E+00  0.000000E+00  1.841665E+02  0.000000E+00 -8.645638E-11  0.000000E+00  0.000000E+00  1.252313E-10           1 
 3.450000E+01  5.000000E-01  5.000000E-01  3.910676E+00  3.684146E-06  1.311765E-04  7.968301E-06  1.932513E-04  5.469595E-15  2.100000E-01  1.500000E-01  0.000000E+00  9.294008E-33 -1.970789E-31  0.000000E+00  6.360000E-03  6.360000E-03  6.360000E-03  9.765724E-23  7.950236E-19  6.472255E-15  3.562306E-18  3.562306E-18  8.730831E-13  6.305281E-11  1.623230E-10  0.000000E+00 -6.272060E-09  0.000000E+00  0.000000E+00  2.074191E+02  0.000000E+00 -1.640821E-10  0.000000E+00  0.000000E+00  2.262554E-10           1 
 3.550000E+01  5.000000E-01  5.000000E-01  3.982030E+00  3.341933E-06  1.112703E-04  6.885445E-06  1.922628E-04  3.830384E-15  2.100000E-01  1.500000E-01  0.000000E+00  9.195312E-33 -1.937570E-31  0.000000E+00  6.360000E-03  6.360000E-03  6.360000E-03  6.842607E-23  6.565249E-19  6.299133E-15  4.086113E-18  4.086113E-18  8.497297E-13  4.417958E-11  1.340452E-10  0.000000E+00 -6.117707E-09  0.000000E+00  0.000000E+00  2.344292E+02  0.000000E+00 -1.357573E-10  0.000000E+00  0.000000E+00  1.790808E-10           1 
 3.650000E+01  5.000000E-01  5.000000E-01  4.054560E+00  3.027338E-06  9.414493E-05  5.954035E-06  1.914159E-04  3.106031E-15  2.100000E-01  1.500000E-01  0.000000E+00  9.110765E-33 -1.865496E-31  0.000000E+00  6.360000E-03  6.360000E-03  6.360000E-03  5.526632E-23  6.266428E-19  7.105253E-15  5.446770E-18  5.446770E-18  9.584722E-13  3.568293E-11  1.279440E-10  0.000000E+00 -6.917265E-09  0.000000E+00  0.000000E+00  2.657109E+02  0.000000E+00 -1.298752E-10  0.000000E+00  0.000000E+00  1.645925E-10           1 
 3.750000E+01  5.000000E-01  5.000000E-01  4.128366E+00  2.708434E-06  7.943437E-05  5.156377E-06  1.906941E-04  2.729439E-15  2.100000E-01  1.500000E-01  0.000000E+00  9.038699E-33 -1.713816E-31  0.000000E+00  6.360000E-03  6.360000E-03  6.360000E-03  4.812076E-23  6.466932E-19  8.690886E-15  7.896413E-18  7.896413E-18  1.172368E-12  3.106937E-11  1.320378E-10  0.000000E+00 -8.483904E-09  0.000000E+00  0.000000E+00  3.018131E+02  0.000000E+00 -1.344000E-10  0.000000E+00  0.000000E+00  1.642882E-10           1 
 3.850000E+01  5.000000E-01  5.000000E-01  4.195162E+00  2.343543E-06  6.809986E-05  4.476415E-06  1.900817E-04  2.552944E-15  2.100000E-01  1.500000E-01  0.000000E+00  8.977554E-33 -1.485523E-31  0.000000E+00  6.360000E-03  6.360000E-03  6.360000E-03  4.472714E-23  7.010238E-19  1.098739E-14  1.164276E-17  1.164276E-17  1.482158E-12  2.887827E-11  1.431307E-10  0.000000E+00 -1.075870E-08  0.000000E+00  0.000000E+00  3.407756E+02  0.000000E+00 -1.461170E-10  0.000000E+00  0.000000E+00  1.735021E-10           1 
 3.950000E+01  5.000000E-01  5.000000E-01  4.262654E+00  2.011995E-06  5.829145E-05  3.899478E-06  1.895642E-04  2.386121E-15  2.100000E-01  1.500000E-01  0.000000E+00  8.925893E-33 -1.083245E-31  0.000000E+00  6.360000E-03  6.360000E-03  6.360000E-03  4.133516E-23  7.567876E-19  1.385570E-14  1.715074E-17  1.715074E-17  1.869083E-12  2.668822E-11  1.545162E-10  0.000000E+00 -1.361546E-08  0.000000E+00  0.000000E+00  3.847433E+02  0.000000E+00 -1.582822E-10  0.000000E+00  0.000000E+00  1.830874E-10           1 
 4.050000E+01  5.000000E-01  5.000000E-01  4.336041E+00  1.719732E-06  4.925962E-05  3.410620E-06  1.891288E-04  2.622982E-15  2.100000E-01  1.500000E-01  0.000000E+00  8.882417E-33 -2.636135E-32  0.000000E+00  6.360000E-03  6.360000E-03  6.360000E-03  4.438525E-23  9.622320E-19  2.086032E-14  3.057469E-17  3.057469E-17  2.813979E-12  2.865752E-11  1.964625E-10  0.000000E+00 -2.057548E-08  0.000000E+00  0.000000E+00  4.357714E+02  0.000000E+00 -2.021324E-10  0.000000E+00  0.000000E+00  2.279550E-10           1 
 4.150000E+01  5.000000E-01  5.000000E-01  4.415075E+00  1.856929E-06  4.106509E-05  3.007573E-06  1.887636E-04  1.202323E-15  2.100000E-01  1.500000E-01  0.000000E+00  8.845963E-33  3.492675E-31  0.000000E+00  6.360000E-03  6.360000E-03  6.360000E-03  1.964954E-23  5.110079E-19  1.328932E-14  2.336565E-17  2.336565E-17  1.792680E-12  1.268681E-11  1.043344E-10  0.000000E+00 -1.318077E-08  0.000000E+00  0.000000E+00  4.955644E+02  0.000000E+00 -1.079465E-10  0.000000E+00  0.000000E+00  1.188272E-10           1 
 4.250000E+01  5.000000E-01  5.000000E-01  4.495656E+00  1.718350E-06  3.410617E-05  2.667604E-06  1.884585E-04  1.052290E-15  2.100000E-01  1.500000E-01  0.000000E+00  8.815500E-33  1.115861E-30  0.000000E+00  6.360000E-03  6.360000E-03  6.360000E-03  1.643164E-23  5.144424E-19  1.610618E-14  3.409167E-17  3.409167E-17  2.172664E-12  1.060916E-11  1.050357E-10  0.000000E+00 -1.608580E-08  0.000000E+00  0.000000E+00  5.614861E+02  0.000000E+00 -1.094134E-10  0.000000E+00  0.000000E+00  1.178337E-10           1 
 4.350000E+01  5.000000E-01  5.000000E-01  4.555213E+00  1.344099E-06  2.977343E-05  2.371626E-06  1.882043E-04  1.058773E-15  2.100000E-01  1.500000E-01  0.000000E+00  8.790123E-33  1.496641E-30  0.000000E+00  6.360000E-03  6.360000E-03  6.360000E-03  1.608815E-23  5.777223E-19  2.074590E-14  5.036692E-17  5.036692E-17  2.798545E-12  1.038738E-11  1.179557E-10  0.000000E+00 -2.081497E-08  0.000000E+00  0.000000E+00  6.211718E+02  0.000000E+00 -1.235946E-10  0.000000E+00  0.000000E+00  1.311625E-10           1 
 4.450000E+01  5.000000E-01  5.000000E-01  4.625411E+00  1.174985E-06  2.537544E-05  2.133374E-06  1.879932E-04  1.988675E-15  2.100000E-01  1.500000E-01  0.000000E+00  8.769045E-33  2.853596E-30  0.000000E+00  6.360000E-03  6.360000E-03  6.360000E-03  2.873457E-23  1.212873E-18  5.119480E-14  1.460953E-16  1.460953E-16  6.905988E-12  1.855260E-11  2.476369E-10  0.000000E+00 -5.168323E-08  0.000000E+00  0.000000E+00  6.887118E+02  0.000000E+00 -2.615521E-10  0.000000E+00  0.000000E+00  2.731469E-10           1 
 4.550000E+01  5.000000E-01  5.000000E-01  4.771795E+00  1.461203E-06  1.812846E-05  1.963735E-06  1.878183E-04  5.379920E-15  2.100000E-01  1.500000E-01  0.000000E+00  8.751585E-33  2.592008E-29  0.000000E+00  6.360000E-03  6.360000E-03  6.359999E-03  6.466466E-23  3.823507E-18  2.260772E-13  9.037566E-16  9.037566E-16  3.049697E-11  4.175101E-11  7.806598E-10  0.000000E+00 -2.329236E-07  0.000000E+00  0.000000E+00  7.951468E+02  0.000000E+00 -8.421113E-10  0.000000E+00  0.000000E+00  8.531356E-10           1 
 4.650000E+01  5.000000E-01  5.000000E-01  4.849440E+00  1.224925E-06  1.522023E-05  1.800503E-06  1.876739E-04  4.077038E-15  2.100000E-01  1.500000E-01  0.000000E+00  8.737160E-33  4.439254E-29  0.000000E+00  6.360000E-03  6.360000E-03  6.359999E-03  4.462493E-23  3.155135E-18  2.230788E-13  1.066347E-15  1.066347E-15  3.009250E-11  2.881228E-11  6.441958E-10  0.000000E+00 -2.322044E-07  0.000000E+00  0.000000E+00  8.650014E+02  0.000000E+00 -7.048334E-10  0.000000E+00  0.000000E+00  7.033258E-10           1 
 4.750000E+01  5.000000E-01  5.000000E-01  4.957650E+00  1.281294E-06  1.177388E-05  1.662742E-06  1.875548E-04  6.912135E-16  2.100000E-01  1.500000E-01  0.000000E+00  8.725271E-33  1.587649E-28  0.000000E+00  6.360000E-03  6.360000E-03  6.360000E-03  6.453036E-24  5.853478E-19  5.309626E-14  3.256221E-16  3.256221E-16  7.162489E-12  4.166430E-12  1.195127E-10  0.000000E+00 -5.704461E-08  0.000000E+00  0.000000E+00  9.495482E+02  0.000000E+00 -1.339458E-10  0.000000E+00  0.000000E+00  1.308954E-10           1 
 4.850000E+01  5.000000E-01  5.000000E-01  5.048829E+00  1.368711E-06  9.358072E-06  1.558452E-06  1.874568E-04  5.731033E-16  2.100000E-01  1.500000E-01  0.000000E+00  8.715493E-33  4.688846E-28  0.000000E+00  6.360000E-03  6.360000E-03  6.360000E-03  4.610558E-24  5.159201E-19  5.773131E-14  4.367575E-16  4.367575E-16  7.787739E-12  2.976827E-12  1.053374E-10  0.000000E+00 -6.485075E-08  0.000000E+00  0.000000E+00  1.016321E+03  0.000000E+00 -1.210309E-10  0.000000E+00  0.000000E+00  1.161605E-10           1 
 4.950000E+01  5.000000E-01  5.000000E-01  5.161807E+00  8.245343E-07  7.507263E-06  1.439623E-06  1.873765E-04  5.455737E-16  2.100000E-01  1.500000E-01  0.000000E+00  8.707469E-33  5.092407E-28  0.000000E+00  6.360000E-03  6.360000E-03  6.360000E-03  3.496743E-24  5.075407E-19  7.366787E-14  7.229118E-16  7.229118E-16  9.937522E-12  2.257687E-12  1.036265E-10  0.000000E+00 -8.259027E-08  0.000000E+00  0.000000E+00  1.065181E+03  0.000000E+00 -1.236532E-10  0.000000E+00  0.000000E+00  1.158968E-10           1 
 5.050000E+01  5.000000E-01  5.000000E-01  5.263572E+00  6.565395E-07  6.036872E-06  1.356690E-06  1.873106E-04  5.298908E-16  2.100000E-01  1.500000E-01  0.000000E+00  8.700897E-33  8.026182E-28  0.000000E+00  6.360000E-03  6.360000E-03  6.360000E-03  2.717913E-24  4.986636E-19  9.149132E-14  1.134886E-15  1.134886E-15  1.234184E-11  1.754832E-12  1.018140E-10  0.000000E+00 -1.052269E-07  0.000000E+00  0.000000E+00  1.097725E+03  0.000000E+00 -1.266875E-10  0.000000E+00  0.000000E+00  1.160045E-10           1 
 5.150000E+01  5.000000E-01  5.000000E-01  5.338855E+00  1.578851E-06  3.892629E-06  1.372180E-06  1.872568E-04  5.771868E-16  2.100000E-01  1.500000E-01  0.000000E+00  8.695524E-33  8.626344E-27  0.000000E+00  6.360000E-03  6.360000E-03  6.360000E-03  2.479653E-24  5.410608E-19  1.180596E-13  1.741632E-15  1.741632E-15  1.592580E-11  1.600998E-12  1.104704E-10  0.000000E+00 -1.836479E-07  0.000000E+00  0.000000E+00  1.113016E+03  0.000000E+00 -1.425686E-10  0.000000E+00  0.000000E+00  1.281188E-10           1 
 5.250000E+01  5.000000E-01  5.000000E-01  5.450652E+00  1.081172E-06  3.155166E-06  1.281665E-06  1.872129E-04  1.222528E-15  2.100000E-01  1.500000E-01  0.000000E+00  8.691139E-33  9.210978E-27  0.000000E+00  6.360000E-03  6.360000E-03  6.360000E-03  3.912285E-24  1.104289E-18  3.116987E-13  5.948222E-15  5.948222E-15  4.204699E-11  2.525984E-12  2.254669E-10  0.000000E+00 -4.930064E-07  0.000000E+00  0.000000E+00  1.108904E+03  0.000000E+00 -3.102199E-10  0.000000E+00  0.000000E+00  2.703634E-10           1 
 5.350000E+01  5.000000E-01  5.000000E-01  5.568566E+00  5.411496E-07  2.908504E-06  1.201683E-06  1.871771E-04  1.458997E-15  2.100000E-01  1.500000E-01  0.000000E+00  8.687567E-33  4.805285E-27  0.000000E+00  6.360000E-03  6.360000E-03  6.360000E-03  3.324014E-24  1.230918E-18  4.558220E-13  1.141200E-14  1.141200E-14  6.148870E-11  2.146164E-12  2.513212E-10  0.000000E+00 -6.469777E-07  0.000000E+00  0.000000E+00  1.084077E+03  0.000000E+00 -3.752787E-10  0.000000E+00  0.000000E+00  3.154347E-10           1 
 5.450000E+01  5.000000E-01  5.000000E-01  5.685260E+00  3.559790E-07  2.456156E-06  1.157395E-06  1.871480E-04  1.333841E-15  2.100000E-01  1.500000E-01  0.000000E+00  8.684661E-33  3.725489E-27  0.000000E+00  6.360000E-03  6.360000E-03  6.360000E-03  2.107903E-24  1.021199E-18  4.947316E-13  1.620426E-14  1.620426E-14  6.673746E-11  1.360977E-12  2.085020E-10  0.000000E+00 -7.003638E-07  0.000000E+00  0.000000E+00  1.041791E+03  0.000000E+00 -3.430636E-10  0.000000E+00  0.000000E+00  2.771275E-10           1 
 5.550000E+01  5.000000E-01  5.000000E-01  5.808138E+00  2.721285E-07  2.007514E-06  1.129185E-06  1.871244E-04  1.309462E-15  2.100000E-01  1.500000E-01  0.000000E+00  8.682300E-33  3.459527E-27  0.000000E+00  6.360000E-03  6.360000E-03  6.360000E-03  1.365688E-24  8.779893E-19  5.644520E-13  2.453380E-14  2.453380E-14  7.614248E-11  8.817620E-13  1.792624E-10  0.000000E+00 -8.313050E-07  0.000000E+00  0.000000E+00  9.837315E+02  0.000000E+00 -3.328235E-10  0.000000E+00  0.000000E+00  2.569002E-10           1 