TITLE = "  1.0000E-01 [y]"
VARIABLES="X [m]","Y [m]","Z [m]","vlx [m/y]","vly [m/y]","vlz [m/y]","Material_ID"
ZONE T= "  1.0000E-01", I=  100, J=    1, K=    1, DATAPACKING=POINT
 5.000000E-01  5.000000E-01  5.000000E-01  1.900000E+01  0.000000E+00  0.000000E+00           1 
 1.500000E+00  5.000000E-01  5.000000E-01  1.900000E+01  0.000000E+00  0.000000E+00           1 
 2.500000E+00  5.000000E-01  5.000000E-01  1.900000E+01  0.000000E+00  0.000000E+00           1 
 3.500000E+00  5.000000E-01  5.000000E-01  1.900000E+01  0.000000E+00  0.000000E+00           1 
 4.500000E+00  5.000000E-01  5.000000E-01  1.900000E+01  0.000000E+00  0.000000E+00           1 
 5.500000E+00  5.000000E-01  5.000000E-01  1.900000E+01  0.000000E+00  0.000000E+00           1 
 6.500000E+00  5.000000E-01  5.000000E-01  1.900000E+01  0.000000E+00  0.000000E+00           1 
 7.500000E+00  5.000000E-01  5.000000E-01  1.900000E+01  0.000000E+00  0.000000E+00           1 
 8.500000E+00  5.000000E-01  5.000000E-01  1.900000E+01  0.000000E+00  0.000000E+00           1 
 9.500000E+00  5.000000E-01  5.000000E-01  1.900000E+01  0.000000E+00  0.000000E+00           1 
 1.050000E+01  5.000000E-01  5.000000E-01  1.900000E+01  0.000000E+00  0.000000E+00           1 
 1.150000E+01  5.000000E-01  5.000000E-01  1.900000E+01  0.000000E+00  0.000000E+00           1 
 1.250000E+01  5.000000E-01  5.000000E-01  1.900000E+01  0.000000E+00  0.000000E+00           1 
 1.350000E+01  5.000000E-01  5.000000E-01  1.900000E+01  0.000000E+00  0.000000E+00           1 
 1.450000E+01  5.000000E-01  5.000000E-01  1.900000E+01  0.000000E+00  0.000000E+00           1 
 1.550000E+01  5.000000E-01  5.000000E-01  1.900000E+01  0.000000E+00  0.000000E+00           1 
 1.650000E+01  5.000000E-01  5.000000E-01  1.900000E+01  0.000000E+00  0.000000E+00           1 
 1.750000E+01  5.000000E-01  5.000000E-01  1.900000E+01  0.000000E+00  0.000000E+00           1 
 1.850000E+01  5.000000E-01  5.000000E-01  1.900000E+01  0.000000E+00  0.000000E+00           1 
 1.950000E+01  5.000000E-01  5.000000E-01  1.900000E+01  0.000000E+00  0.000000E+00           1 
 2.050000E+01  5.000000E-01  5.000000E-01  1.900000E+01  0.000000E+00  0.000000E+00           1 
 2.150000E+01  5.000000E-01  5.000000E-01  1.900000E+01  0.000000E+00  0.000000E+00           1 
 2.250000E+01  5.000000E-01  5.000000E-01  1.900000E+01  0.000000E+00  0.000000E+00           1 
 2.350000E+01  5.000000E-01  5.000000E-01  1.900000E+01  0.000000E+00  0.000000E+00           1 
 2.450000E+01  5.000000E-01  5.000000E-01  1.900000E+01  0.000000E+00  0.000000E+00           1 
 2.550000E+01  5.000000E-01  5.000000E-01  1.900000E+01  0.000000E+00  0.000000E+00           1 
 2.650000E+01  5.000000E-01  5.000000E-01  1.900000E+01  0.000000E+00  0.000000E+00           1 
 2.750000E+01  5.000000E-01  5.000000E-01  1.900000E+01  0.000000E+00  0.000000E+00           1 
 2.850000E+01  5.000000E-01  5.000000E-01  1.900000E+01  0.000000E+00  0.000000E+00           1 
 2.950000E+01  5.000000E-01  5.000000E-01  1.900000E+01  0.000000E+00  0.000000E+00           1 
 3.050000E+01  5.000000E-01  5.000000E-01  1.900000E+01  0.000000E+00  0.000000E+00           1 
 3.150000E+01  5.000000E-01  5.000000E-01  1.900000E+01  0.000000E+00  0.000000E+00           1 
 3.250000E+01  5.000000E-01  5.000000E-01  1.900000E+01  0.000000E+00  0.000000E+00           1 
 3.350000E+01  5.000000E-01  5.000000E-01  1.900000E+01  0.000000E+00  0.000000E+00           1 
 3.450000E+01  5.000000E-01  5.000000E-01  1.900000E+01  0.000000E+00  0.000000E+00           1 
 3.550000E+01  5.000000E-01  5.000000E-01  1.900000E+01  0.000000E+00  0.000000E+00           1 
 3.650000E+01  5.000000E-01  5.000000E-01  1.900000E+01  0.000000E+00  0.000000E+00           1 
 3.750000E+01  5.000000E-01  5.000000E-01  1.900000E+01  0.000000E+00  0.000000E+00           1 
 3.850000E+01  5.000000E-01  5.000000E-01  1.900000E+01  0.000000E+00  0.000000E+00           1 
 3.950000E+01  5.000000E-01  5.000000E-01  1.900000E+01  0.000000E+00  0.000000E+00           1 
 4.050000E+01  5.000000E-01  5.000000E-01  1.900000E+01  0.000000E+00  0.000000E+00           1 
 4.150000E+01  5.000000E-01  5.000000E-01  1.900000E+01  0.000000E+00  0.000000E+00           1 
 4.250000E+01  5.000000E-01  5.000000E-01  1.900000E+01  0.000000E+00  0.000000E+00           1 
 4.350000E+01  5.000000E-01  5.000000E-01  1.900000E+01  0.000000E+00  0.000000E+00           1 
 4.450000E+01  5.000000E-01  5.000000E-01  1.900000E+01  0.000000E+00  0.000000E+00           1 
 4.550000E+01  5.000000E-01  5.000000E-01  1.900000E+01  0.000000E+00  0.000000E+00           1 
 4.650000E+01  5.000000E-01  5.000000E-01  1.900000E+01  0.000000E+00  0.000000E+00           1 
 4.750000E+01  5.000000E-01  5.000000E-01  1.900000E+01  0.000000E+00  0.000000E+00           1 
 4.850000E+01  5.000000E-01  5.000000E-01  1.900000E+01  0.000000E+00  0.000000E+00           1 
 4.950000E+01  5.000000E-01  5.000000E-01  1.900000E+01  0.000000E+00  0.000000E+00           1 
 5.050000E+01  5.000000E-01  5.000000E-01  1.900000E+01  0.000000E+00  0.000000E+00           1 
 5.150000E+01  5.000000E-01  5.000000E-01  1.900000E+01  0.000000E+00  0.000000E+00           1 
 5.250000E+01  5.000000E-01  5.000000E-01  1.900000E+01  0.000000E+00  0.000000E+00           1 
 5.350000E+01  5.000000E-01  5.000000E-01  1.900000E+01  0.000000E+00  0.000000E+00           1 
 5.450000E+01  5.000000E-01  5.000000E-01  1.900000E+01  0.000000E+00  0.000000E+00           1 
 5.550000E+01  5.000000E-01  5.000000E-01  1.900000E+01  0.000000E+00  0.000000E+00           1 
 5.650000E+01  5.000000E-01  5.000000E-01  1.900000E+01  0.000000E+00  0.000000E+00           1 
 5.750000E+01  5.000000E-01  5.000000E-01  1.900000E+01  0.000000E+00  0.000000E+00           1 
 5.850000E+01  5.000000E-01  5.000000E-01  1.900000E+01  0.000000E+00  0.000000E+00           1 
 5.950000E+01  5.000000E-01  5.000000E-01  1.900000E+01  0.000000E+00  0.000000E+00           1 
 6.050000E+01  5.000000E-01  5.000000E-01  1.900000E+01  0.000000E+00  0.000000E+00           1 
 6.150000E+01  5.000000E-01  5.000000E-01  1.900000E+01  0.000000E+00  0.000000E+00           1 
 6.250000E+01  5.000000E-01  5.000000E-01  1.900000E+01  0.000000E+00  0.000000E+00           1 
 6.350000E+01  5.000000E-01  5.000000E-01  1.900000E+01  0.000000E+00  0.000000E+00           1 
 6.450000E+01  5.000000E-01  5.000000E-01  1.900000E+01  0.000000E+00  0.000000E+00           1 
 6.550000E+01  5.000000E-01  5.000000E-01  1.900000E+01  0.000000E+00  0.000000E+00           1 
 6.650000E+01  5.000000E-01  5.000000E-01  1.900000E+01  0.000000E+00  0.000000E+00           1 
 6.750000E+01  5.000000E-01  5.000000E-01  1.900000E+01  0.000000E+00  0.000000E+00           1 
 6.850000E+01  5.000000E-01  5.000000E-01  1.900000E+01  0.000000E+00  0.000000E+00           1 
 6.950000E+01  5.000000E-01  5.000000E-01  1.900000E+01  0.000000E+00  0.000000E+00           1 
 7.050000E+01  5.000000E-01  5.000000E-01  1.900000E+01  0.000000E+00  0.000000E+00           1 
 7.150000E+01  5.000000E-01  5.000000E-01  1.900000E+01  0.000000E+00  0.000000E+00           1 
 7.250000E+01  5.000000E-01  5.000000E-01  1.900000E+01  0.000000E+00  0.000000E+00           1 
 7.350000E+01  5.000000E-01  5.000000E-01  1.900000E+01  0.000000E+00  0.000000E+00           1 
 7.450000E+01  5.000000E-01  5.000000E-01  1.900000E+01  0.000000E+00  0.000000E+00           1 
 7.550000E+01  5.000000E-01  5.000000E-01  1.900000E+01  0.000000E+00  0.000000E+00           1 
 7.650000E+01  5.000000E-01  5.000000E-01  1.900000E+01  0.000000E+00  0.000000E+00           1 
 7.750000E+01  5.000000E-01  5.000000E-01  1.900000E+01  0.000000E+00  0.000000E+00           1 
 7.850000E+01  5.000000E-01  5.000000E-01  1.900000E+01  0.000000E+00  0.000000E+00           1 
 7.950000E+01  5.000000E-01  5.000000E-01  1.900000E+01  0.000000E+00  0.000000E+00           1 
 8.050000E+01  5.000000E-01  5.000000E-01  1.900000E+01  0.000000E+00  0.000000E+00           1 
 8.150000E+01  5.000000E-01  5.000000E-01  1.900000E+01  0.000000E+00  0.000000E+00           1 
 8.250000E+01  5.000000E-01  5.000000E-01  1.900000E+01  0.000000E+00  0.000000E+00           1 
 8.350000E+01  5.000000E-01  5.000000E-01  1.900000E+01  0.000000E+00  0.000000E+00           1 
 8.450000E+01  5.000000E-01  5.000000E-01  1.900000E+01  0.000000E+00  0.000000E+00           1 
 8.550000E+01  5.000000E-01  5.000000E-01  1.900000E+01  0.000000E+00  0.000000E+00           1 
 8.650000E+01  5.000000E-01  5.000000E-01  1.900000E+01  0.000000E+00  0.000000E+00           1 
 8.750000E+01  5.000000E-01  5.000000E-01  1.900000E+01  0.000000E+00  0.000000E+00           1 
 8.850000E+01  5.000000E-01  5.000000E-01  1.900000E+01  0.000000E+00  0.000000E+00           1 
 8.950000E+01  5.000000E-01  5.000000E-01  1.900000E+01  0.000000E+00  0.000000E+00           1 
 9.050000E+01  5.000000E-01  5.000000E-01  1.900000E+01  0.000000E+00  0.000000E+00           1 
 9.150000E+01  5.000000E-01  5.000000E-01  1.900000E+01  0.000000E+00  0.000000E+00           1 
 9.250000E+01  5.000000E-01  5.000000E-01  1.900000E+01  0.000000E+00  0.000000E+00           1 
 9.350000E+01  5.000000E-01  5.000000E-01  1.900000E+01  0.000000E+00  0.000000E+00           1 
 9.450000E+01  5.000000E-01  5.000000E-01  1.900000E+01  0.000000E+00  0.000000E+00           1 
 9.550000E+01  5.000000E-01  5.000000E-01  1.900000E+01  0.000000E+00  0.000000E+00           1 
 9.650000E+01  5.000000E-01  5.000000E-01  1.900000E+01  0.000000E+00  0.000000E+00           1 
 9.750000E+01  5.000000E-01  5.000000E-01  1.900000E+01  0.000000E+00  0.000000E+00           1 
 9.850000E+01  5.000000E-01  5.000000E-01  1.900000E+01  0.000000E+00  0.000000E+00           1 
 9.950000E+01  5.000000E-01  5.000000E-01  1.900000E+01  0.000000E+00  0.000000E+00           1 
