# Units: Mol/m^3 porous medium
 TITLE = " Years"
VARIABLES = "X (meters)", "Na+       ", "Ca++      ", "Mg++      ", "Cl-       ", "
 ZONE F=POINT,I=         100
 5.00000E-01               1.48515E+02   1.42435E+02   1.58307E+02   0.00000E+00
 1.50000E+00               1.60286E+02   1.41810E+02   1.53047E+02   0.00000E+00
 2.50000E+00               1.60360E+02   1.41689E+02   1.53131E+02   0.00000E+00
 3.50000E+00               1.60361E+02   1.41685E+02   1.53134E+02   0.00000E+00
 4.50000E+00               1.60388E+02   1.41677E+02   1.53129E+02   0.00000E+00
 5.50000E+00               1.60415E+02   1.41669E+02   1.53124E+02   0.00000E+00
 6.50000E+00               1.60437E+02   1.41662E+02   1.53120E+02   0.00000E+00
 7.50000E+00               1.60439E+02   1.41661E+02   1.53119E+02   0.00000E+00
 8.50000E+00               1.60447E+02   1.41659E+02   1.53118E+02   0.00000E+00
 9.50000E+00               1.60476E+02   1.41650E+02   1.53112E+02   0.00000E+00
 1.05000E+01               1.60581E+02   1.41617E+02   1.53092E+02   0.00000E+00
 1.15000E+01               1.60608E+02   1.41609E+02   1.53087E+02   0.00000E+00
 1.25000E+01               1.60587E+02   1.41615E+02   1.53091E+02   0.00000E+00
 1.35000E+01               1.60588E+02   1.41615E+02   1.53091E+02   0.00000E+00
 1.45000E+01               1.60588E+02   1.41615E+02   1.53091E+02   0.00000E+00
 1.55000E+01               1.60588E+02   1.41615E+02   1.53091E+02   0.00000E+00
 1.65000E+01               1.60588E+02   1.41615E+02   1.53091E+02   0.00000E+00
 1.75000E+01               1.60588E+02   1.41615E+02   1.53091E+02   0.00000E+00
 1.85000E+01               1.60588E+02   1.41615E+02   1.53091E+02   0.00000E+00
 1.95000E+01               1.60588E+02   1.41615E+02   1.53091E+02   0.00000E+00
 2.05000E+01               1.60588E+02   1.41615E+02   1.53091E+02   0.00000E+00
 2.15000E+01               1.60588E+02   1.41615E+02   1.53091E+02   0.00000E+00
 2.25000E+01               1.60588E+02   1.41615E+02   1.53091E+02   0.00000E+00
 2.35000E+01               1.60588E+02   1.41615E+02   1.53091E+02   0.00000E+00
 2.45000E+01               1.60588E+02   1.41615E+02   1.53091E+02   0.00000E+00
 2.55000E+01               1.60588E+02   1.41615E+02   1.53091E+02   0.00000E+00
 2.65000E+01               1.60588E+02   1.41615E+02   1.53091E+02   0.00000E+00
 2.75000E+01               1.60588E+02   1.41615E+02   1.53091E+02   0.00000E+00
 2.85000E+01               1.60588E+02   1.41615E+02   1.53091E+02   0.00000E+00
 2.95000E+01               1.60588E+02   1.41615E+02   1.53091E+02   0.00000E+00
 3.05000E+01               1.60588E+02   1.41615E+02   1.53091E+02   0.00000E+00
 3.15000E+01               1.60588E+02   1.41615E+02   1.53091E+02   0.00000E+00
 3.25000E+01               1.60588E+02   1.41615E+02   1.53091E+02   0.00000E+00
 3.35000E+01               1.60588E+02   1.41615E+02   1.53091E+02   0.00000E+00
 3.45000E+01               1.60588E+02   1.41615E+02   1.53091E+02   0.00000E+00
 3.55000E+01               1.60588E+02   1.41615E+02   1.53091E+02   0.00000E+00
 3.65000E+01               1.60588E+02   1.41615E+02   1.53091E+02   0.00000E+00
 3.75000E+01               1.60588E+02   1.41615E+02   1.53091E+02   0.00000E+00
 3.85000E+01               1.60588E+02   1.41615E+02   1.53091E+02   0.00000E+00
 3.95000E+01               1.60588E+02   1.41615E+02   1.53091E+02   0.00000E+00
 4.05000E+01               1.60588E+02   1.41615E+02   1.53091E+02   0.00000E+00
 4.15000E+01               1.60588E+02   1.41615E+02   1.53091E+02   0.00000E+00
 4.25000E+01               1.60588E+02   1.41615E+02   1.53091E+02   0.00000E+00
 4.35000E+01               1.60588E+02   1.41615E+02   1.53091E+02   0.00000E+00
 4.45000E+01               1.60588E+02   1.41615E+02   1.53091E+02   0.00000E+00
 4.55000E+01               1.60588E+02   1.41615E+02   1.53091E+02   0.00000E+00
 4.65000E+01               1.60588E+02   1.41615E+02   1.53091E+02   0.00000E+00
 4.75000E+01               1.60588E+02   1.41615E+02   1.53091E+02   0.00000E+00
 4.85000E+01               1.60588E+02   1.41615E+02   1.53091E+02   0.00000E+00
 4.95000E+01               1.60588E+02   1.41615E+02   1.53091E+02   0.00000E+00
 5.05000E+01               1.60588E+02   1.41615E+02   1.53091E+02   0.00000E+00
 5.15000E+01               1.60588E+02   1.41615E+02   1.53091E+02   0.00000E+00
 5.25000E+01               1.60588E+02   1.41615E+02   1.53091E+02   0.00000E+00
 5.35000E+01               1.60588E+02   1.41615E+02   1.53091E+02   0.00000E+00
 5.45000E+01               1.60588E+02   1.41615E+02   1.53091E+02   0.00000E+00
 5.55000E+01               1.60588E+02   1.41615E+02   1.53091E+02   0.00000E+00
 5.65000E+01               1.60588E+02   1.41615E+02   1.53091E+02   0.00000E+00
 5.75000E+01               1.60588E+02   1.41615E+02   1.53091E+02   0.00000E+00
 5.85000E+01               1.60588E+02   1.41615E+02   1.53091E+02   0.00000E+00
 5.95000E+01               1.60588E+02   1.41615E+02   1.53091E+02   0.00000E+00
 6.05000E+01               1.60588E+02   1.41615E+02   1.53091E+02   0.00000E+00
 6.15000E+01               1.60588E+02   1.41615E+02   1.53091E+02   0.00000E+00
 6.25000E+01               1.60588E+02   1.41615E+02   1.53091E+02   0.00000E+00
 6.35000E+01               1.60588E+02   1.41615E+02   1.53091E+02   0.00000E+00
 6.45000E+01               1.60588E+02   1.41615E+02   1.53091E+02   0.00000E+00
 6.55000E+01               1.60588E+02   1.41615E+02   1.53091E+02   0.00000E+00
 6.65000E+01               1.60588E+02   1.41615E+02   1.53091E+02   0.00000E+00
 6.75000E+01               1.60588E+02   1.41615E+02   1.53091E+02   0.00000E+00
 6.85000E+01               1.60588E+02   1.41615E+02   1.53091E+02   0.00000E+00
 6.95000E+01               1.60588E+02   1.41615E+02   1.53091E+02   0.00000E+00
 7.05000E+01               1.60588E+02   1.41615E+02   1.53091E+02   0.00000E+00
 7.15000E+01               1.60588E+02   1.41615E+02   1.53091E+02   0.00000E+00
 7.25000E+01               1.60588E+02   1.41615E+02   1.53091E+02   0.00000E+00
 7.35000E+01               1.60588E+02   1.41615E+02   1.53091E+02   0.00000E+00
 7.45000E+01               1.60588E+02   1.41615E+02   1.53091E+02   0.00000E+00
 7.55000E+01               1.60588E+02   1.41615E+02   1.53091E+02   0.00000E+00
 7.65000E+01               1.60588E+02   1.41615E+02   1.53091E+02   0.00000E+00
 7.75000E+01               1.60588E+02   1.41615E+02   1.53091E+02   0.00000E+00
 7.85000E+01               1.60588E+02   1.41615E+02   1.53091E+02   0.00000E+00
 7.95000E+01               1.60588E+02   1.41615E+02   1.53091E+02   0.00000E+00
 8.05000E+01               1.60588E+02   1.41615E+02   1.53091E+02   0.00000E+00
 8.15000E+01               1.60588E+02   1.41615E+02   1.53091E+02   0.00000E+00
 8.25000E+01               1.60588E+02   1.41615E+02   1.53091E+02   0.00000E+00
 8.35000E+01               1.60588E+02   1.41615E+02   1.53091E+02   0.00000E+00
 8.45000E+01               1.60588E+02   1.41615E+02   1.53091E+02   0.00000E+00
 8.55000E+01               1.60588E+02   1.41615E+02   1.53091E+02   0.00000E+00
 8.65000E+01               1.60588E+02   1.41615E+02   1.53091E+02   0.00000E+00
 8.75000E+01               1.60588E+02   1.41615E+02   1.53091E+02   0.00000E+00
 8.85000E+01               1.60588E+02   1.41615E+02   1.53091E+02   0.00000E+00
 8.95000E+01               1.60588E+02   1.41615E+02   1.53091E+02   0.00000E+00
 9.05000E+01               1.60588E+02   1.41615E+02   1.53091E+02   0.00000E+00
 9.15000E+01               1.60588E+02   1.41615E+02   1.53091E+02   0.00000E+00
 9.25000E+01               1.60588E+02   1.41615E+02   1.53091E+02   0.00000E+00
 9.35000E+01               1.60588E+02   1.41615E+02   1.53091E+02   0.00000E+00
 9.45000E+01               1.60588E+02   1.41615E+02   1.53091E+02   0.00000E+00
 9.55000E+01               1.60588E+02   1.41615E+02   1.53091E+02   0.00000E+00
 9.65000E+01               1.60588E+02   1.41615E+02   1.53091E+02   0.00000E+00
 9.75000E+01               1.60588E+02   1.41615E+02   1.53091E+02   0.00000E+00
 9.85000E+01               1.60588E+02   1.41615E+02   1.53091E+02   0.00000E+00
 9.95000E+01               1.60588E+02   1.41615E+02   1.53091E+02   0.00000E+00
