TITLE = "  1.5000E+00 [y]"
VARIABLES="X [m]","Y [m]","Z [m]"," 4-pH"," 5-Al+++_tot_m"," 6-H+_tot_m"," 7-HPO4--_tot_m"," 8-SiO2(aq)_tot_m"," 9-UO2++_tot_m","10-Quartz_vf","11-Kaolinite_vf","12-(UO2)3(PO4)2.4H2O_vf","13-Quartz_rt","14-Kaolinite_rt","15-(UO2)3(PO4)2.4H2O_rt","16->SiOH","17->FeOH","18->AlOH","19->SiOUO3H3++","20->SiOUO3H2+","21->SiOUO3H","22->SiOUO3-","23->SiOUO2(OH)2-","24->FeOHUO3","25->FeOHUO2++","26->AlOUO2+","27-Al+++_kd","28-H+_kd","29-HPO4--_kd","30-SiO2(aq)_kd","31-UO2++_kd","32-Al+++_total_sorb","33-H+_total_sorb","34-HPO4--_total_sorb","35-SiO2(aq)_total_sorb","36-UO2++_total_sorb","37-Material_ID"
ZONE T= "  1.5000E+00", I=  100, J=    1, K=    1, DATAPACKING=POINT
 5.000000E-01  5.000000E-01  5.000000E-01  2.930000E+00  2.890870E-05  1.280702E-03  7.102790E-05  2.527990E-04  3.541350E-05  2.100000E-01  1.500000E-01  1.147013E-19  1.523919E-32 -1.999997E-31  4.987564E-24  6.359634E-03  1.218213E-04  4.302931E-04  5.043139E-13  4.292407E-10  3.653431E-07  2.102330E-11  2.102330E-11  9.440437E-07  6.237235E-03  5.929707E-03  0.000000E+00 -2.322640E-02  0.000000E+00  0.000000E+00  1.722917E+00  0.000000E+00 -5.932326E-03  0.000000E+00  0.000000E+00  1.216825E-02           1 
 1.500000E+00  5.000000E-01  5.000000E-01  2.930000E+00  2.890870E-05  1.280702E-03  7.102790E-05  2.527990E-04  3.541350E-05  2.100000E-01  1.500000E-01  1.122502E-19  1.523919E-32 -1.999997E-31  4.987564E-24  6.359634E-03  1.218213E-04  4.302931E-04  5.043139E-13  4.292407E-10  3.653431E-07  2.102330E-11  2.102330E-11  9.440437E-07  6.237235E-03  5.929707E-03  0.000000E+00 -2.322640E-02  0.000000E+00  0.000000E+00  1.722917E+00  0.000000E+00 -5.932326E-03  0.000000E+00  0.000000E+00  1.216825E-02           1 
 2.500000E+00  5.000000E-01  5.000000E-01  2.930000E+00  2.890870E-05  1.280702E-03  7.102790E-05  2.527990E-04  3.541350E-05  2.100000E-01  1.500000E-01  1.099402E-19  1.523919E-32 -1.999997E-31  4.987564E-24  6.359634E-03  1.218213E-04  4.302931E-04  5.043139E-13  4.292407E-10  3.653431E-07  2.102330E-11  2.102330E-11  9.440437E-07  6.237235E-03  5.929707E-03  0.000000E+00 -2.322640E-02  0.000000E+00  0.000000E+00  1.722917E+00  0.000000E+00 -5.932326E-03  0.000000E+00  0.000000E+00  1.216825E-02           1 
 3.500000E+00  5.000000E-01  5.000000E-01  2.930000E+00  2.890870E-05  1.280702E-03  7.102790E-05  2.527990E-04  3.541350E-05  2.100000E-01  1.500000E-01  1.074471E-19  1.523919E-32 -1.999997E-31  4.987564E-24  6.359634E-03  1.218213E-04  4.302931E-04  5.043139E-13  4.292407E-10  3.653431E-07  2.102330E-11  2.102330E-11  9.440437E-07  6.237235E-03  5.929707E-03  0.000000E+00 -2.322640E-02  0.000000E+00  0.000000E+00  1.722917E+00  0.000000E+00 -5.932326E-03  0.000000E+00  0.000000E+00  1.216825E-02           1 
 4.500000E+00  5.000000E-01  5.000000E-01  2.930000E+00  2.890870E-05  1.280702E-03  7.102790E-05  2.527990E-04  3.541350E-05  2.100000E-01  1.500000E-01  1.046790E-19  1.523919E-32 -1.999997E-31  4.987564E-24  6.359634E-03  1.218213E-04  4.302931E-04  5.043139E-13  4.292407E-10  3.653431E-07  2.102330E-11  2.102330E-11  9.440437E-07  6.237235E-03  5.929707E-03  0.000000E+00 -2.322640E-02  0.000000E+00  0.000000E+00  1.722917E+00  0.000000E+00 -5.932326E-03  0.000000E+00  0.000000E+00  1.216825E-02           1 
 5.500000E+00  5.000000E-01  5.000000E-01  2.930000E+00  2.890870E-05  1.280702E-03  7.102790E-05  2.527990E-04  3.541350E-05  2.100000E-01  1.500000E-01  1.018362E-19  1.523919E-32 -1.999997E-31  4.987564E-24  6.359634E-03  1.218213E-04  4.302931E-04  5.043139E-13  4.292407E-10  3.653431E-07  2.102330E-11  2.102330E-11  9.440437E-07  6.237235E-03  5.929707E-03  0.000000E+00 -2.322640E-02  0.000000E+00  0.000000E+00  1.722917E+00  0.000000E+00 -5.932326E-03  0.000000E+00  0.000000E+00  1.216825E-02           1 
 6.500000E+00  5.000000E-01  5.000000E-01  2.930000E+00  2.890870E-05  1.280702E-03  7.102790E-05  2.527990E-04  3.541350E-05  2.100000E-01  1.500000E-01  9.927371E-20  1.523919E-32 -1.999997E-31  4.987564E-24  6.359634E-03  1.218213E-04  4.302931E-04  5.043139E-13  4.292407E-10  3.653431E-07  2.102330E-11  2.102330E-11  9.440437E-07  6.237235E-03  5.929707E-03  0.000000E+00 -2.322640E-02  0.000000E+00  0.000000E+00  1.722917E+00  0.000000E+00 -5.932326E-03  0.000000E+00  0.000000E+00  1.216825E-02           1 
 7.500000E+00  5.000000E-01  5.000000E-01  2.930000E+00  2.890870E-05  1.280702E-03  7.102790E-05  2.527990E-04  3.541350E-05  2.100000E-01  1.500000E-01  9.679189E-20  1.523919E-32 -1.999997E-31  4.987564E-24  6.359634E-03  1.218213E-04  4.302931E-04  5.043139E-13  4.292407E-10  3.653431E-07  2.102330E-11  2.102330E-11  9.440437E-07  6.237235E-03  5.929707E-03  0.000000E+00 -2.322640E-02  0.000000E+00  0.000000E+00  1.722917E+00  0.000000E+00 -5.932326E-03  0.000000E+00  0.000000E+00  1.216825E-02           1 
 8.500000E+00  5.000000E-01  5.000000E-01  2.930000E+00  2.890870E-05  1.280702E-03  7.102790E-05  2.527990E-04  3.541350E-05  2.100000E-01  1.500000E-01  9.433946E-20  1.523919E-32 -1.999997E-31  4.987564E-24  6.359634E-03  1.218213E-04  4.302931E-04  5.043139E-13  4.292407E-10  3.653431E-07  2.102330E-11  2.102330E-11  9.440437E-07  6.237235E-03  5.929707E-03  0.000000E+00 -2.322640E-02  0.000000E+00  0.000000E+00  1.722917E+00  0.000000E+00 -5.932326E-03  0.000000E+00  0.000000E+00  1.216825E-02           1 
 9.500000E+00  5.000000E-01  5.000000E-01  2.930000E+00  2.890870E-05  1.280702E-03  7.102790E-05  2.527990E-04  3.541350E-05  2.100000E-01  1.500000E-01  9.152240E-20  1.523919E-32 -1.999997E-31  4.987564E-24  6.359634E-03  1.218213E-04  4.302931E-04  5.043139E-13  4.292407E-10  3.653431E-07  2.102330E-11  2.102330E-11  9.440437E-07  6.237235E-03  5.929707E-03  0.000000E+00 -2.322640E-02  0.000000E+00  0.000000E+00  1.722917E+00  0.000000E+00 -5.932326E-03  0.000000E+00  0.000000E+00  1.216825E-02           1 
 1.050000E+01  5.000000E-01  5.000000E-01  2.930000E+00  2.890870E-05  1.280702E-03  7.102790E-05  2.527990E-04  3.541350E-05  2.100000E-01  1.500000E-01  8.925247E-20  1.523919E-32 -1.999997E-31  4.987564E-24  6.359634E-03  1.218213E-04  4.302931E-04  5.043139E-13  4.292407E-10  3.653431E-07  2.102330E-11  2.102330E-11  9.440437E-07  6.237235E-03  5.929707E-03  0.000000E+00 -2.322640E-02  0.000000E+00  0.000000E+00  1.722917E+00  0.000000E+00 -5.932326E-03  0.000000E+00  0.000000E+00  1.216825E-02           1 
 1.150000E+01  5.000000E-01  5.000000E-01  2.930000E+00  2.890870E-05  1.280702E-03  7.102790E-05  2.527990E-04  3.541350E-05  2.100000E-01  1.500000E-01  8.691675E-20  1.523919E-32 -1.999997E-31  4.987564E-24  6.359634E-03  1.218213E-04  4.302931E-04  5.043139E-13  4.292407E-10  3.653431E-07  2.102330E-11  2.102330E-11  9.440437E-07  6.237235E-03  5.929707E-03  0.000000E+00 -2.322640E-02  0.000000E+00  0.000000E+00  1.722917E+00  0.000000E+00 -5.932326E-03  0.000000E+00  0.000000E+00  1.216825E-02           1 
 1.250000E+01  5.000000E-01  5.000000E-01  2.930000E+00  2.890870E-05  1.280702E-03  7.102790E-05  2.527990E-04  3.541350E-05  2.100000E-01  1.500000E-01  8.434543E-20  1.523919E-32 -1.999997E-31  4.987564E-24  6.359634E-03  1.218213E-04  4.302931E-04  5.043139E-13  4.292407E-10  3.653431E-07  2.102330E-11  2.102330E-11  9.440437E-07  6.237235E-03  5.929707E-03  0.000000E+00 -2.322640E-02  0.000000E+00  0.000000E+00  1.722917E+00  0.000000E+00 -5.932326E-03  0.000000E+00  0.000000E+00  1.216825E-02           1 
 1.350000E+01  5.000000E-01  5.000000E-01  2.930000E+00  2.890870E-05  1.280702E-03  7.102790E-05  2.527990E-04  3.541350E-05  2.100000E-01  1.500000E-01  8.099683E-20  1.523919E-32 -1.999997E-31  4.987564E-24  6.359634E-03  1.218213E-04  4.302931E-04  5.043139E-13  4.292407E-10  3.653431E-07  2.102330E-11  2.102330E-11  9.440437E-07  6.237235E-03  5.929707E-03  0.000000E+00 -2.322640E-02  0.000000E+00  0.000000E+00  1.722917E+00  0.000000E+00 -5.932326E-03  0.000000E+00  0.000000E+00  1.216825E-02           1 
 1.450000E+01  5.000000E-01  5.000000E-01  2.930000E+00  2.890870E-05  1.280702E-03  7.102790E-05  2.527990E-04  3.541350E-05  2.100000E-01  1.500000E-01  7.882320E-20  1.523919E-32 -1.999997E-31  4.987563E-24  6.359634E-03  1.218213E-04  4.302931E-04  5.043139E-13  4.292407E-10  3.653431E-07  2.102330E-11  2.102330E-11  9.440437E-07  6.237235E-03  5.929707E-03  0.000000E+00 -2.322640E-02  0.000000E+00  0.000000E+00  1.722917E+00  0.000000E+00 -5.932326E-03  0.000000E+00  0.000000E+00  1.216825E-02           1 
 1.550000E+01  5.000000E-01  5.000000E-01  2.930000E+00  2.890870E-05  1.280702E-03  7.102790E-05  2.527990E-04  3.541350E-05  2.100000E-01  1.500000E-01  7.683451E-20  1.523919E-32 -1.999997E-31  4.987563E-24  6.359634E-03  1.218213E-04  4.302931E-04  5.043139E-13  4.292407E-10  3.653431E-07  2.102330E-11  2.102330E-11  9.440437E-07  6.237235E-03  5.929707E-03  0.000000E+00 -2.322640E-02  0.000000E+00  0.000000E+00  1.722917E+00  0.000000E+00 -5.932326E-03  0.000000E+00  0.000000E+00  1.216825E-02           1 
 1.650000E+01  5.000000E-01  5.000000E-01  2.930000E+00  2.890870E-05  1.280702E-03  7.102790E-05  2.527990E-04  3.541350E-05  2.100000E-01  1.500000E-01  7.479860E-20  1.523919E-32 -1.999997E-31  4.987563E-24  6.359634E-03  1.218213E-04  4.302932E-04  5.043139E-13  4.292407E-10  3.653431E-07  2.102330E-11  2.102330E-11  9.440437E-07  6.237235E-03  5.929707E-03  0.000000E+00 -2.322640E-02  0.000000E+00  0.000000E+00  1.722917E+00  0.000000E+00 -5.932326E-03  0.000000E+00  0.000000E+00  1.216825E-02           1 
 1.750000E+01  5.000000E-01  5.000000E-01  2.930000E+00  2.890870E-05  1.280702E-03  7.102790E-05  2.527990E-04  3.541350E-05  2.100000E-01  1.500000E-01  7.257295E-20  1.523919E-32 -1.999997E-31  4.987563E-24  6.359634E-03  1.218213E-04  4.302932E-04  5.043139E-13  4.292407E-10  3.653431E-07  2.102330E-11  2.102330E-11  9.440437E-07  6.237235E-03  5.929707E-03  0.000000E+00 -2.322640E-02  0.000000E+00  0.000000E+00  1.722917E+00  0.000000E+00 -5.932326E-03  0.000000E+00  0.000000E+00  1.216825E-02           1 
 1.850000E+01  5.000000E-01  5.000000E-01  2.930000E+00  2.890870E-05  1.280702E-03  7.102790E-05  2.527990E-04  3.541350E-05  2.100000E-01  1.500000E-01  7.183928E-20  1.523919E-32 -1.999997E-31  4.987562E-24  6.359634E-03  1.218213E-04  4.302932E-04  5.043138E-13  4.292407E-10  3.653431E-07  2.102330E-11  2.102330E-11  9.440437E-07  6.237235E-03  5.929707E-03  0.000000E+00 -2.322640E-02  0.000000E+00  0.000000E+00  1.722917E+00  0.000000E+00 -5.932326E-03  0.000000E+00  0.000000E+00  1.216825E-02           1 
 1.950000E+01  5.000000E-01  5.000000E-01  2.930000E+00  2.890870E-05  1.280702E-03  7.102790E-05  2.527990E-04  3.541349E-05  2.100000E-01  1.500000E-01  6.753898E-20  1.523919E-32 -1.999997E-31  4.987559E-24  6.359634E-03  1.218213E-04  4.302933E-04  5.043138E-13  4.292406E-10  3.653430E-07  2.102330E-11  2.102330E-11  9.440437E-07  6.237235E-03  5.929707E-03  0.000000E+00 -2.322640E-02  0.000000E+00  0.000000E+00  1.722917E+00  0.000000E+00 -5.932326E-03  0.000000E+00  0.000000E+00  1.216825E-02           1 
 2.050000E+01  5.000000E-01  5.000000E-01  2.930000E+00  2.890870E-05  1.280702E-03  7.102790E-05  2.527990E-04  3.541348E-05  2.100000E-01  1.500000E-01  6.521969E-20  1.523919E-32 -1.999997E-31  4.987555E-24  6.359634E-03  1.218214E-04  4.302934E-04  5.043136E-13  4.292405E-10  3.653429E-07  2.102329E-11  2.102329E-11  9.440436E-07  6.237235E-03  5.929707E-03  0.000000E+00 -2.322640E-02  0.000000E+00  0.000000E+00  1.722918E+00  0.000000E+00 -5.932326E-03  0.000000E+00  0.000000E+00  1.216825E-02           1 
 2.150000E+01  5.000000E-01  5.000000E-01  2.930000E+00  2.890870E-05  1.280702E-03  7.102790E-05  2.527990E-04  3.541347E-05  2.100000E-01  1.500000E-01  6.306539E-20  1.523919E-32 -1.999997E-31  4.987548E-24  6.359634E-03  1.218214E-04  4.302936E-04  5.043133E-13  4.292403E-10  3.653427E-07  2.102328E-11  2.102328E-11  9.440436E-07  6.237235E-03  5.929706E-03  0.000000E+00 -2.322640E-02  0.000000E+00  0.000000E+00  1.722918E+00  0.000000E+00 -5.932326E-03  0.000000E+00  0.000000E+00  1.216825E-02           1 
 2.250000E+01  5.000000E-01  5.000000E-01  2.930000E+00  2.890870E-05  1.280702E-03  7.102790E-05  2.527990E-04  3.541344E-05  2.100000E-01  1.500000E-01  5.978413E-20  1.523919E-32 -1.999997E-31  4.987534E-24  6.359634E-03  1.218216E-04  4.302940E-04  5.043128E-13  4.292398E-10  3.653423E-07  2.102326E-11  2.102326E-11  9.440436E-07  6.237234E-03  5.929706E-03  0.000000E+00 -2.322639E-02  0.000000E+00  0.000000E+00  1.722920E+00  0.000000E+00 -5.932325E-03  0.000000E+00  0.000000E+00  1.216825E-02           1 
 2.350000E+01  5.000000E-01  5.000000E-01  2.930000E+00  2.890870E-05  1.280702E-03  7.102790E-05  2.527990E-04  3.541339E-05  2.100000E-01  1.500000E-01  5.782254E-20  1.523919E-32 -1.999997E-31  4.987508E-24  6.359634E-03  1.218218E-04  4.302947E-04  5.043120E-13  4.292391E-10  3.653417E-07  2.102322E-11  2.102322E-11  9.440435E-07  6.237234E-03  5.929705E-03  0.000000E+00 -2.322639E-02  0.000000E+00  0.000000E+00  1.722922E+00  0.000000E+00 -5.932325E-03  0.000000E+00  0.000000E+00  1.216825E-02           1 
 2.450000E+01  5.000000E-01  5.000000E-01  2.930000E+00  2.890870E-05  1.280702E-03  7.102790E-05  2.527990E-04  3.541330E-05  2.100000E-01  1.500000E-01  5.564604E-20  1.523919E-32 -1.999997E-31  4.987464E-24  6.359634E-03  1.218221E-04  4.302959E-04  5.043104E-13  4.292377E-10  3.653405E-07  2.102315E-11  2.102315E-11  9.440434E-07  6.237234E-03  5.929704E-03  0.000000E+00 -2.322639E-02  0.000000E+00  0.000000E+00  1.722926E+00  0.000000E+00 -5.932323E-03  0.000000E+00  0.000000E+00  1.216825E-02           1 
 2.550000E+01  5.000000E-01  5.000000E-01  2.930000E+00  2.890870E-05  1.280702E-03  7.102791E-05  2.527990E-04  3.541315E-05  2.100000E-01  1.500000E-01  5.539581E-20  1.523919E-32 -1.999997E-31  4.987389E-24  6.359634E-03  1.218228E-04  4.302981E-04  5.043078E-13  4.292355E-10  3.653386E-07  2.102304E-11  2.102304E-11  9.440432E-07  6.237233E-03  5.929702E-03  0.000000E+00 -2.322638E-02  0.000000E+00  0.000000E+00  1.722933E+00  0.000000E+00 -5.932321E-03  0.000000E+00  0.000000E+00  1.216824E-02           1 
 2.650000E+01  5.000000E-01  5.000000E-01  2.930000E+00  2.890870E-05  1.280703E-03  7.102792E-05  2.527990E-04  3.541290E-05  2.100000E-01  1.500000E-01  5.110846E-20  1.523919E-32 -1.999997E-31  4.987262E-24  6.359634E-03  1.218238E-04  4.303016E-04  5.043033E-13  4.292317E-10  3.653353E-07  2.102285E-11  2.102285E-11  9.440429E-07  6.237232E-03  5.929698E-03  0.000000E+00 -2.322636E-02  0.000000E+00  0.000000E+00  1.722944E+00  0.000000E+00 -5.932318E-03  0.000000E+00  0.000000E+00  1.216824E-02           1 
 2.750000E+01  5.000000E-01  5.000000E-01  2.930000E+00  2.890870E-05  1.280703E-03  7.102793E-05  2.527990E-04  3.541249E-05  2.100000E-01  1.500000E-01  4.894316E-20  1.523919E-32 -1.999997E-31  4.987055E-24  6.359634E-03  1.218255E-04  4.303075E-04  5.042960E-13  4.292254E-10  3.653299E-07  2.102253E-11  2.102253E-11  9.440423E-07  6.237230E-03  5.929692E-03  0.000000E+00 -2.322633E-02  0.000000E+00  0.000000E+00  1.722963E+00  0.000000E+00 -5.932312E-03  0.000000E+00  0.000000E+00  1.216823E-02           1 
 2.850000E+01  5.000000E-01  5.000000E-01  2.930000E+00  2.890870E-05  1.280703E-03  7.102796E-05  2.527990E-04  3.541183E-05  2.100000E-01  1.500000E-01  4.813110E-20  1.523919E-32 -1.999997E-31  4.986721E-24  6.359634E-03  1.218283E-04  4.303170E-04  5.042843E-13  4.292153E-10  3.653212E-07  2.102203E-11  2.102203E-11  9.440414E-07  6.237228E-03  5.929683E-03  0.000000E+00 -2.322629E-02  0.000000E+00  0.000000E+00  1.722994E+00  0.000000E+00 -5.932302E-03  0.000000E+00  0.000000E+00  1.216822E-02           1 
 2.950000E+01  5.000000E-01  5.000000E-01  2.930000E+00  2.890870E-05  1.280704E-03  7.102801E-05  2.527990E-04  3.541078E-05  2.100000E-01  1.500000E-01  4.430407E-20  1.523919E-32 -1.999997E-31  4.986194E-24  6.359634E-03  1.218327E-04  4.303319E-04  5.042656E-13  4.291992E-10  3.653074E-07  2.102123E-11  2.102123E-11  9.440400E-07  6.237223E-03  5.929668E-03  0.000000E+00 -2.322621E-02  0.000000E+00  0.000000E+00  1.723042E+00  0.000000E+00 -5.932287E-03  0.000000E+00  0.000000E+00  1.216820E-02           1 
 3.050000E+01  5.000000E-01  5.000000E-01  2.929999E+00  2.890869E-05  1.280705E-03  7.102810E-05  2.527990E-04  3.540915E-05  2.100000E-01  1.500000E-01  4.222761E-20  1.523918E-32 -1.999997E-31  4.985372E-24  6.359634E-03  1.218396E-04  4.303553E-04  5.042366E-13  4.291742E-10  3.652859E-07  2.101997E-11  2.101997E-11  9.440378E-07  6.237216E-03  5.929645E-03  0.000000E+00 -2.322610E-02  0.000000E+00  0.000000E+00  1.723117E+00  0.000000E+00 -5.932264E-03  0.000000E+00  0.000000E+00  1.216817E-02           1 
 3.150000E+01  5.000000E-01  5.000000E-01  2.929999E+00  2.890869E-05  1.280707E-03  7.102825E-05  2.527990E-04  3.540664E-05  2.100000E-01  1.500000E-01  4.003886E-20  1.523918E-32 -1.999997E-31  4.984105E-24  6.359634E-03  1.218503E-04  4.303914E-04  5.041917E-13  4.291356E-10  3.652527E-07  2.101804E-11  2.101804E-11  9.440344E-07  6.237206E-03  5.929609E-03  0.000000E+00 -2.322593E-02  0.000000E+00  0.000000E+00  1.723233E+00  0.000000E+00 -5.932228E-03  0.000000E+00  0.000000E+00  1.216812E-02           1 
 3.250000E+01  5.000000E-01  5.000000E-01  2.929998E+00  2.890868E-05  1.280710E-03  7.102851E-05  2.527990E-04  3.540284E-05  2.100000E-01  1.500000E-01  4.130269E-20  1.523918E-32 -1.999997E-31  4.982190E-24  6.359634E-03  1.218664E-04  4.304462E-04  5.041236E-13  4.290771E-10  3.652023E-07  2.101512E-11  2.101512E-11  9.440292E-07  6.237190E-03  5.929554E-03  0.000000E+00 -2.322567E-02  0.000000E+00  0.000000E+00  1.723408E+00  0.000000E+00 -5.932173E-03  0.000000E+00  0.000000E+00  1.216805E-02           1 
 3.350000E+01  5.000000E-01  5.000000E-01  2.929997E+00  2.890868E-05  1.280714E-03  7.102896E-05  2.527989E-04  3.539717E-05  2.100000E-01  1.500000E-01  3.592882E-20  1.523918E-32 -1.999997E-31  4.979339E-24  6.359634E-03  1.218905E-04  4.305281E-04  5.040219E-13  4.289895E-10  3.651270E-07  2.101074E-11  2.101074E-11  9.440214E-07  6.237165E-03  5.929472E-03  0.000000E+00 -2.322527E-02  0.000000E+00  0.000000E+00  1.723669E+00  0.000000E+00 -5.932091E-03  0.000000E+00  0.000000E+00  1.216795E-02           1 
 3.450000E+01  5.000000E-01  5.000000E-01  2.929996E+00  2.890866E-05  1.280720E-03  7.102972E-05  2.527989E-04  3.538877E-05  2.100000E-01  1.500000E-01  3.414885E-20  1.523918E-32 -1.999997E-31  4.975111E-24  6.359635E-03  1.219265E-04  4.306500E-04  5.038705E-13  4.288593E-10  3.650150E-07  2.100422E-11  2.100422E-11  9.440099E-07  6.237130E-03  5.929350E-03  0.000000E+00 -2.322468E-02  0.000000E+00  0.000000E+00  1.724055E+00  0.000000E+00 -5.931969E-03  0.000000E+00  0.000000E+00  1.216779E-02           1 
 3.550000E+01  5.000000E-01  5.000000E-01  2.929994E+00  2.890865E-05  1.280729E-03  7.103092E-05  2.527989E-04  3.537627E-05  2.100000E-01  1.500000E-01  3.189039E-20  1.523917E-32 -1.999997E-31  4.968822E-24  6.359635E-03  1.219801E-04  4.308319E-04  5.036447E-13  4.286651E-10  3.648479E-07  2.099451E-11  2.099451E-11  9.439926E-07  6.237076E-03  5.929168E-03  0.000000E+00 -2.322380E-02  0.000000E+00  0.000000E+00  1.724631E+00  0.000000E+00 -5.931786E-03  0.000000E+00  0.000000E+00  1.216755E-02           1 
 3.650000E+01  5.000000E-01  5.000000E-01  2.929991E+00  2.890862E-05  1.280743E-03  7.103300E-05  2.527988E-04  3.535806E-05  2.100000E-01  1.500000E-01  3.128282E-20  1.523917E-32 -1.999997E-31  4.959670E-24  6.359635E-03  1.220586E-04  4.310985E-04  5.033142E-13  4.283807E-10  3.646033E-07  2.098028E-11  2.098028E-11  9.439672E-07  6.236997E-03  5.928901E-03  0.000000E+00 -2.322250E-02  0.000000E+00  0.000000E+00  1.725470E+00  0.000000E+00 -5.931519E-03  0.000000E+00  0.000000E+00  1.216721E-02           1 
 3.750000E+01  5.000000E-01  5.000000E-01  2.929986E+00  2.890859E-05  1.280765E-03  7.103627E-05  2.527987E-04  3.533099E-05  2.100000E-01  1.500000E-01  2.690378E-20  1.523916E-32 -1.999997E-31  4.946082E-24  6.359635E-03  1.221758E-04  4.314962E-04  5.028220E-13  4.279572E-10  3.642389E-07  2.095908E-11  2.095908E-11  9.439292E-07  6.236880E-03  5.928504E-03  0.000000E+00 -2.322055E-02  0.000000E+00  0.000000E+00  1.726720E+00  0.000000E+00 -5.931121E-03  0.000000E+00  0.000000E+00  1.216669E-02           1 
 3.850000E+01  5.000000E-01  5.000000E-01  2.929979E+00  2.890855E-05  1.280796E-03  7.104094E-05  2.527986E-04  3.528995E-05  2.100000E-01  1.500000E-01  2.477756E-20  1.523915E-32 -1.999997E-31  4.925525E-24  6.359636E-03  1.223534E-04  4.320988E-04  5.020780E-13  4.273170E-10  3.636881E-07  2.092705E-11  2.092705E-11  9.438717E-07  6.236703E-03  5.927901E-03  0.000000E+00 -2.321761E-02  0.000000E+00  0.000000E+00  1.728617E+00  0.000000E+00 -5.930517E-03  0.000000E+00  0.000000E+00  1.216591E-02           1 
 3.950000E+01  5.000000E-01  5.000000E-01  2.929969E+00  2.890849E-05  1.280844E-03  7.104855E-05  2.527985E-04  3.523007E-05  2.100000E-01  1.500000E-01  2.342745E-20  1.523914E-32 -1.999997E-31  4.895611E-24  6.359637E-03  1.226144E-04  4.329842E-04  5.009885E-13  4.263796E-10  3.628817E-07  2.088015E-11  2.088015E-11  9.437874E-07  6.236442E-03  5.927016E-03  0.000000E+00 -2.321328E-02  0.000000E+00  0.000000E+00  1.731392E+00  0.000000E+00 -5.929630E-03  0.000000E+00  0.000000E+00  1.216476E-02           1 
 4.050000E+01  5.000000E-01  5.000000E-01  2.929953E+00  2.890841E-05  1.280914E-03  7.106034E-05  2.527983E-04  3.514225E-05  2.100000E-01  1.500000E-01  2.041312E-20  1.523912E-32 -1.999997E-31  4.851922E-24  6.359638E-03  1.229996E-04  4.342906E-04  4.993889E-13  4.250033E-10  3.616978E-07  2.081130E-11  2.081130E-11  9.436632E-07  6.236057E-03  5.925709E-03  0.000000E+00 -2.320688E-02  0.000000E+00  0.000000E+00  1.735477E+00  0.000000E+00 -5.928321E-03  0.000000E+00  0.000000E+00  1.216307E-02           1 
 4.150000E+01  5.000000E-01  5.000000E-01  2.929931E+00  2.890831E-05  1.281017E-03  7.107550E-05  2.527981E-04  3.500825E-05  2.100000E-01  1.500000E-01  1.802094E-20  1.523909E-32 -1.999997E-31  4.785665E-24  6.359640E-03  1.235873E-04  4.362829E-04  4.969674E-13  4.229204E-10  3.599062E-07  2.070713E-11  2.070713E-11  9.434752E-07  6.235469E-03  5.923717E-03  0.000000E+00 -2.319720E-02  0.000000E+00  0.000000E+00  1.741749E+00  0.000000E+00 -5.926324E-03  0.000000E+00  0.000000E+00  1.216049E-02           1 
 4.250000E+01  5.000000E-01  5.000000E-01  2.929897E+00  2.890817E-05  1.281165E-03  7.109332E-05  2.527977E-04  3.480401E-05  2.100000E-01  1.500000E-01  1.577369E-20  1.523906E-32 -1.999997E-31  4.685594E-24  6.359642E-03  1.244850E-04  4.393238E-04  4.933127E-13  4.197776E-10  3.572039E-07  2.055006E-11  2.055006E-11  9.431929E-07  6.234572E-03  5.920676E-03  0.000000E+00 -2.318259E-02  0.000000E+00  0.000000E+00  1.751403E+00  0.000000E+00 -5.923278E-03  0.000000E+00  0.000000E+00  1.215655E-02           1 
 4.350000E+01  5.000000E-01  5.000000E-01  2.929849E+00  2.890798E-05  1.281382E-03  7.112133E-05  2.527973E-04  3.451040E-05  2.100000E-01  1.500000E-01  1.367836E-20  1.523902E-32 -1.999997E-31  4.543688E-24  6.359646E-03  1.257983E-04  4.437677E-04  4.880602E-13  4.152623E-10  3.533228E-07  2.032454E-11  2.032454E-11  9.427867E-07  6.233259E-03  5.916232E-03  0.000000E+00 -2.316125E-02  0.000000E+00  0.000000E+00  1.765466E+00  0.000000E+00 -5.918825E-03  0.000000E+00  0.000000E+00  1.215079E-02           1 
 4.450000E+01  5.000000E-01  5.000000E-01  2.929777E+00  2.890775E-05  1.281691E-03  7.114931E-05  2.527967E-04  3.405812E-05  2.100000E-01  1.500000E-01  1.111419E-20  1.523896E-32 -1.999997E-31  4.329636E-24  6.359652E-03  1.278452E-04  4.506835E-04  4.800887E-13  4.084124E-10  3.474373E-07  1.998269E-11  1.998269E-11  9.421662E-07  6.231213E-03  5.909316E-03  0.000000E+00 -2.312856E-02  0.000000E+00  0.000000E+00  1.787591E+00  0.000000E+00 -5.911896E-03  0.000000E+00  0.000000E+00  1.214182E-02           1 
 4.550000E+01  5.000000E-01  5.000000E-01  2.929676E+00  2.890745E-05  1.282127E-03  7.117708E-05  2.527960E-04  3.338320E-05  2.100000E-01  1.500000E-01  9.278133E-21  1.523889E-32 -1.999997E-31  4.020295E-24  6.359661E-03  1.309860E-04  4.612689E-04  4.683417E-13  3.983257E-10  3.387770E-07  1.948002E-11  1.948002E-11  9.412494E-07  6.228073E-03  5.898731E-03  0.000000E+00 -2.307921E-02  0.000000E+00  0.000000E+00  1.821668E+00  0.000000E+00 -5.901292E-03  0.000000E+00  0.000000E+00  1.212808E-02           1 
 4.650000E+01  5.000000E-01  5.000000E-01  2.929542E+00  2.890706E-05  1.282778E-03  7.126809E-05  2.527951E-04  3.250530E-05  2.100000E-01  1.500000E-01  7.560754E-21  1.523880E-32 -1.999997E-31  3.635680E-24  6.359672E-03  1.353507E-04  4.759342E-04  4.529222E-13  3.850928E-10  3.274214E-07  1.882127E-11  1.882127E-11  9.400107E-07  6.223709E-03  5.884066E-03  0.000000E+00 -2.301009E-02  0.000000E+00  0.000000E+00  1.867930E+00  0.000000E+00 -5.886601E-03  0.000000E+00  0.000000E+00  1.210904E-02           1 
 4.750000E+01  5.000000E-01  5.000000E-01  2.929373E+00  2.890658E-05  1.283790E-03  7.155574E-05  2.527940E-04  3.149973E-05  2.100000E-01  1.500000E-01  6.185776E-21  1.523869E-32 -1.999997E-31  3.219385E-24  6.359686E-03  1.409278E-04  4.946070E-04  4.346094E-13  3.693793E-10  3.139394E-07  1.803928E-11  1.803928E-11  9.384406E-07  6.218134E-03  5.865393E-03  0.000000E+00 -2.291889E-02  0.000000E+00  0.000000E+00  1.923698E+00  0.000000E+00 -5.867898E-03  0.000000E+00  0.000000E+00  1.208478E-02           1 
 4.850000E+01  5.000000E-01  5.000000E-01  2.929067E+00  2.890597E-05  1.285013E-03  7.155380E-05  2.527926E-04  2.933922E-05  2.100000E-01  1.500000E-01  3.800351E-21  1.523854E-32 -1.999997E-31  2.410167E-24  6.359712E-03  1.531968E-04  5.353632E-04  3.990160E-13  3.388892E-10  2.878228E-07  1.652694E-11  1.652694E-11  9.352708E-07  6.205868E-03  5.824637E-03  0.000000E+00 -2.273782E-02  0.000000E+00  0.000000E+00  2.056291E+00  0.000000E+00 -5.827083E-03  0.000000E+00  0.000000E+00  1.203173E-02           1 
 4.950000E+01  5.000000E-01  5.000000E-01  2.928713E+00  2.890521E-05  1.286708E-03  7.159958E-05  2.527908E-04  2.644362E-05  2.100000E-01  1.500000E-01  2.357927E-21  1.523837E-32 -1.999997E-31  1.495387E-24  6.359746E-03  1.728983E-04  5.999087E-04  3.524285E-13  2.990776E-10  2.538031E-07  1.456162E-11  1.456162E-11  9.307815E-07  6.186171E-03  5.760091E-03  0.000000E+00 -2.245602E-02  0.000000E+00  0.000000E+00  2.265475E+00  0.000000E+00 -5.762461E-03  0.000000E+00  0.000000E+00  1.194745E-02           1 
 5.050000E+01  5.000000E-01  5.000000E-01  2.928245E+00  2.890434E-05  1.292582E-03  7.665837E-05  2.527886E-04  2.968486E-05  2.100000E-01  1.500000E-01  3.977431E-21  1.523815E-32 -1.999997E-31  2.522470E-24  6.359724E-03  1.591208E-04  5.557040E-04  3.837951E-13  3.253451E-10  2.757968E-07  1.580644E-11  1.580644E-11  9.308460E-07  6.199948E-03  5.804296E-03  0.000000E+00 -2.252564E-02  0.000000E+00  0.000000E+00  2.027909E+00  0.000000E+00 -5.806710E-03  0.000000E+00  0.000000E+00  1.200545E-02           1 
 5.150000E+01  5.000000E-01  5.000000E-01  2.927739E+00  2.890314E-05  1.292400E-03  7.217089E-05  2.527859E-04  1.735195E-05  2.100000E-01  1.500000E-01  0.000000E+00  1.523788E-32 -1.999997E-31  0.000000E+00  6.359845E-03  2.776579E-04  9.264987E-04  2.157458E-13  1.826760E-10  1.546752E-07  8.854413E-12  8.854413E-12  9.109280E-07  6.081431E-03  5.433501E-03  0.000000E+00 -2.108911E-02  0.000000E+00  0.000000E+00  3.327809E+00  0.000000E+00 -5.435633E-03  0.000000E+00  0.000000E+00  1.151600E-02           1 
 5.250000E+01  5.000000E-01  5.000000E-01  2.927372E+00  2.890172E-05  1.294739E-03  7.154387E-05  2.527826E-04  1.026188E-05  2.100000E-01  1.500000E-01  0.000000E+00  1.523755E-32 -1.999997E-31  0.000000E+00  6.359912E-03  4.747322E-04  1.473560E-03  1.220966E-13  1.032942E-10  8.738729E-08  4.998279E-12  4.998279E-12  8.799253E-07  5.884388E-03  4.886440E-03  0.000000E+00 -1.893159E-02  0.000000E+00  0.000000E+00  5.263400E+00  0.000000E+00 -4.888375E-03  0.000000E+00  0.000000E+00  1.077180E-02           1 
 5.350000E+01  5.000000E-01  5.000000E-01  2.927182E+00  2.890001E-05  1.296836E-03  7.154417E-05  2.527786E-04  4.956872E-06  2.100000E-01  1.500000E-01  0.000000E+00  1.523715E-32 -1.999997E-31  0.000000E+00  6.359959E-03  9.403172E-04  2.502903E-03  5.676609E-14  4.800327E-11  4.059315E-08  2.320783E-12  2.320783E-12  8.096042E-07  5.418873E-03  3.857097E-03  0.000000E+00 -1.492011E-02  0.000000E+00  0.000000E+00  9.384183E+00  0.000000E+00 -3.858797E-03  0.000000E+00  0.000000E+00  9.276820E-03           1 
 5.450000E+01  5.000000E-01  5.000000E-01  2.927178E+00  2.889795E-05  1.297864E-03  7.154137E-05  2.527738E-04  1.573408E-06  2.100000E-01  1.500000E-01  0.000000E+00  1.523667E-32 -1.999997E-31  0.000000E+00  6.359987E-03  2.283464E-03  4.305092E-03  1.758281E-14  1.486847E-11  1.257316E-08  7.188235E-13  7.188235E-13  6.089509E-07  4.075927E-03  2.054908E-03  0.000000E+00 -7.943846E-03  0.000000E+00  0.000000E+00  1.954013E+01  0.000000E+00 -2.056152E-03  0.000000E+00  0.000000E+00  6.131457E-03           1 
 5.550000E+01  5.000000E-01  5.000000E-01  2.927240E+00  2.889549E-05  1.298064E-03  7.153724E-05  2.527681E-04  3.299477E-07  2.100000E-01  1.500000E-01  0.000000E+00  1.523610E-32 -1.999997E-31  0.000000E+00  6.359997E-03  4.638919E-03  5.785969E-03  3.654067E-15  3.090410E-12  2.613700E-09  1.494498E-13  1.494498E-13  2.571672E-07  1.720824E-03  5.740309E-04  0.000000E+00 -2.219408E-03  0.000000E+00  0.000000E+00  3.487901E+01  0.000000E+00 -5.745504E-04  0.000000E+00  0.000000E+00  2.295114E-03           1 