TITLE = "  0.0000E+00 [y]"
VARIABLES="X [m]","Y [m]","Z [m]"," 4-pH"," 5-Al+++_tot_m"," 6-H+_tot_m"," 7-HPO4--_tot_m"," 8-SiO2(aq)_tot_m"," 9-UO2++_tot_m","10-Quartz_vf","11-Kaolinite_vf","12-(UO2)3(PO4)2.4H2O_vf","13-Quartz_rt","14-Kaolinite_rt","15-(UO2)3(PO4)2.4H2O_rt","16->SiOH","17->FeOH","18->AlOH","19->SiOUO3H3++","20->SiOUO3H2+","21->SiOUO3H","22->SiOUO3-","23->SiOUO2(OH)2-","24->FeOHUO3","25->FeOHUO2++","26->AlOUO2+","27-Al+++_kd","28-H+_kd","29-HPO4--_kd","30-SiO2(aq)_kd","31-UO2++_kd","32-Al+++_total_sorb","33-H+_total_sorb","34-HPO4--_total_sorb","35-SiO2(aq)_total_sorb","36-UO2++_total_sorb","37-Material_ID"
ZONE T= "  0.0000E+00", I=  100, J=    1, K=    1, DATAPACKING=POINT
 5.000000E-01  5.000000E-01  5.000000E-01  7.500000E+00  6.586169E-09  2.159222E-08  9.999997E-07  1.870251E-04  9.999995E-16  2.100000E-01  1.500000E-01  0.000000E+00  0.000000E+00  0.000000E+00  0.000000E+00  6.360000E-03  6.360000E-03  6.360000E-03  7.890370E-28  2.495155E-20  7.890374E-13  1.686933E-12  1.686933E-12  1.064382E-10  5.094451E-16  5.094452E-12  0.000000E+00 -5.333510E-05  0.000000E+00  0.000000E+00  5.801281E+02  0.000000E+00 -2.296706E-10  0.000000E+00  0.000000E+00  1.156961E-10           1 
 1.500000E+00  5.000000E-01  5.000000E-01  7.500000E+00  6.586169E-09  2.159222E-08  9.999997E-07  1.870251E-04  9.999995E-16  2.100000E-01  1.500000E-01  0.000000E+00  0.000000E+00  0.000000E+00  0.000000E+00  6.360000E-03  6.360000E-03  6.360000E-03  7.890370E-28  2.495155E-20  7.890374E-13  1.686933E-12  1.686933E-12  1.064382E-10  5.094451E-16  5.094452E-12  0.000000E+00 -5.333510E-05  0.000000E+00  0.000000E+00  5.801281E+02  0.000000E+00 -2.296706E-10  0.000000E+00  0.000000E+00  1.156961E-10           1 
 2.500000E+00  5.000000E-01  5.000000E-01  7.500000E+00  6.586169E-09  2.159222E-08  9.999997E-07  1.870251E-04  9.999995E-16  2.100000E-01  1.500000E-01  0.000000E+00  0.000000E+00  0.000000E+00  0.000000E+00  6.360000E-03  6.360000E-03  6.360000E-03  7.890370E-28  2.495155E-20  7.890374E-13  1.686933E-12  1.686933E-12  1.064382E-10  5.094451E-16  5.094452E-12  0.000000E+00 -5.333510E-05  0.000000E+00  0.000000E+00  5.801281E+02  0.000000E+00 -2.296706E-10  0.000000E+00  0.000000E+00  1.156961E-10           1 
 3.500000E+00  5.000000E-01  5.000000E-01  7.500000E+00  6.586169E-09  2.159222E-08  9.999997E-07  1.870251E-04  9.999995E-16  2.100000E-01  1.500000E-01  0.000000E+00  0.000000E+00  0.000000E+00  0.000000E+00  6.360000E-03  6.360000E-03  6.360000E-03  7.890370E-28  2.495155E-20  7.890374E-13  1.686933E-12  1.686933E-12  1.064382E-10  5.094451E-16  5.094452E-12  0.000000E+00 -5.333510E-05  0.000000E+00  0.000000E+00  5.801281E+02  0.000000E+00 -2.296706E-10  0.000000E+00  0.000000E+00  1.156961E-10           1 
 4.500000E+00  5.000000E-01  5.000000E-01  7.500000E+00  6.586169E-09  2.159222E-08  9.999997E-07  1.870251E-04  9.999995E-16  2.100000E-01  1.500000E-01  0.000000E+00  0.000000E+00  0.000000E+00  0.000000E+00  6.360000E-03  6.360000E-03  6.360000E-03  7.890370E-28  2.495155E-20  7.890374E-13  1.686933E-12  1.686933E-12  1.064382E-10  5.094451E-16  5.094452E-12  0.000000E+00 -5.333510E-05  0.000000E+00  0.000000E+00  5.801281E+02  0.000000E+00 -2.296706E-10  0.000000E+00  0.000000E+00  1.156961E-10           1 
 5.500000E+00  5.000000E-01  5.000000E-01  7.500000E+00  6.586169E-09  2.159222E-08  9.999997E-07  1.870251E-04  9.999995E-16  2.100000E-01  1.500000E-01  0.000000E+00  0.000000E+00  0.000000E+00  0.000000E+00  6.360000E-03  6.360000E-03  6.360000E-03  7.890370E-28  2.495155E-20  7.890374E-13  1.686933E-12  1.686933E-12  1.064382E-10  5.094451E-16  5.094452E-12  0.000000E+00 -5.333510E-05  0.000000E+00  0.000000E+00  5.801281E+02  0.000000E+00 -2.296706E-10  0.000000E+00  0.000000E+00  1.156961E-10           1 
 6.500000E+00  5.000000E-01  5.000000E-01  7.500000E+00  6.586169E-09  2.159222E-08  9.999997E-07  1.870251E-04  9.999995E-16  2.100000E-01  1.500000E-01  0.000000E+00  0.000000E+00  0.000000E+00  0.000000E+00  6.360000E-03  6.360000E-03  6.360000E-03  7.890370E-28  2.495155E-20  7.890374E-13  1.686933E-12  1.686933E-12  1.064382E-10  5.094451E-16  5.094452E-12  0.000000E+00 -5.333510E-05  0.000000E+00  0.000000E+00  5.801281E+02  0.000000E+00 -2.296706E-10  0.000000E+00  0.000000E+00  1.156961E-10           1 
 7.500000E+00  5.000000E-01  5.000000E-01  7.500000E+00  6.586169E-09  2.159222E-08  9.999997E-07  1.870251E-04  9.999995E-16  2.100000E-01  1.500000E-01  0.000000E+00  0.000000E+00  0.000000E+00  0.000000E+00  6.360000E-03  6.360000E-03  6.360000E-03  7.890370E-28  2.495155E-20  7.890374E-13  1.686933E-12  1.686933E-12  1.064382E-10  5.094451E-16  5.094452E-12  0.000000E+00 -5.333510E-05  0.000000E+00  0.000000E+00  5.801281E+02  0.000000E+00 -2.296706E-10  0.000000E+00  0.000000E+00  1.156961E-10           1 
 8.500000E+00  5.000000E-01  5.000000E-01  7.500000E+00  6.586169E-09  2.159222E-08  9.999997E-07  1.870251E-04  9.999995E-16  2.100000E-01  1.500000E-01  0.000000E+00  0.000000E+00  0.000000E+00  0.000000E+00  6.360000E-03  6.360000E-03  6.360000E-03  7.890370E-28  2.495155E-20  7.890374E-13  1.686933E-12  1.686933E-12  1.064382E-10  5.094451E-16  5.094452E-12  0.000000E+00 -5.333510E-05  0.000000E+00  0.000000E+00  5.801281E+02  0.000000E+00 -2.296706E-10  0.000000E+00  0.000000E+00  1.156961E-10           1 
 9.500000E+00  5.000000E-01  5.000000E-01  7.500000E+00  6.586169E-09  2.159222E-08  9.999997E-07  1.870251E-04  9.999995E-16  2.100000E-01  1.500000E-01  0.000000E+00  0.000000E+00  0.000000E+00  0.000000E+00  6.360000E-03  6.360000E-03  6.360000E-03  7.890370E-28  2.495155E-20  7.890374E-13  1.686933E-12  1.686933E-12  1.064382E-10  5.094451E-16  5.094452E-12  0.000000E+00 -5.333510E-05  0.000000E+00  0.000000E+00  5.801281E+02  0.000000E+00 -2.296706E-10  0.000000E+00  0.000000E+00  1.156961E-10           1 
 1.050000E+01  5.000000E-01  5.000000E-01  7.500000E+00  6.586169E-09  2.159222E-08  9.999997E-07  1.870251E-04  9.999995E-16  2.100000E-01  1.500000E-01  0.000000E+00  0.000000E+00  0.000000E+00  0.000000E+00  6.360000E-03  6.360000E-03  6.360000E-03  7.890370E-28  2.495155E-20  7.890374E-13  1.686933E-12  1.686933E-12  1.064382E-10  5.094451E-16  5.094452E-12  0.000000E+00 -5.333510E-05  0.000000E+00  0.000000E+00  5.801281E+02  0.000000E+00 -2.296706E-10  0.000000E+00  0.000000E+00  1.156961E-10           1 
 1.150000E+01  5.000000E-01  5.000000E-01  7.500000E+00  6.586169E-09  2.159222E-08  9.999997E-07  1.870251E-04  9.999995E-16  2.100000E-01  1.500000E-01  0.000000E+00  0.000000E+00  0.000000E+00  0.000000E+00  6.360000E-03  6.360000E-03  6.360000E-03  7.890370E-28  2.495155E-20  7.890374E-13  1.686933E-12  1.686933E-12  1.064382E-10  5.094451E-16  5.094452E-12  0.000000E+00 -5.333510E-05  0.000000E+00  0.000000E+00  5.801281E+02  0.000000E+00 -2.296706E-10  0.000000E+00  0.000000E+00  1.156961E-10           1 
 1.250000E+01  5.000000E-01  5.000000E-01  7.500000E+00  6.586169E-09  2.159222E-08  9.999997E-07  1.870251E-04  9.999995E-16  2.100000E-01  1.500000E-01  0.000000E+00  0.000000E+00  0.000000E+00  0.000000E+00  6.360000E-03  6.360000E-03  6.360000E-03  7.890370E-28  2.495155E-20  7.890374E-13  1.686933E-12  1.686933E-12  1.064382E-10  5.094451E-16  5.094452E-12  0.000000E+00 -5.333510E-05  0.000000E+00  0.000000E+00  5.801281E+02  0.000000E+00 -2.296706E-10  0.000000E+00  0.000000E+00  1.156961E-10           1 
 1.350000E+01  5.000000E-01  5.000000E-01  7.500000E+00  6.586169E-09  2.159222E-08  9.999997E-07  1.870251E-04  9.999995E-16  2.100000E-01  1.500000E-01  0.000000E+00  0.000000E+00  0.000000E+00  0.000000E+00  6.360000E-03  6.360000E-03  6.360000E-03  7.890370E-28  2.495155E-20  7.890374E-13  1.686933E-12  1.686933E-12  1.064382E-10  5.094451E-16  5.094452E-12  0.000000E+00 -5.333510E-05  0.000000E+00  0.000000E+00  5.801281E+02  0.000000E+00 -2.296706E-10  0.000000E+00  0.000000E+00  1.156961E-10           1 
 1.450000E+01  5.000000E-01  5.000000E-01  7.500000E+00  6.586169E-09  2.159222E-08  9.999997E-07  1.870251E-04  9.999995E-16  2.100000E-01  1.500000E-01  0.000000E+00  0.000000E+00  0.000000E+00  0.000000E+00  6.360000E-03  6.360000E-03  6.360000E-03  7.890370E-28  2.495155E-20  7.890374E-13  1.686933E-12  1.686933E-12  1.064382E-10  5.094451E-16  5.094452E-12  0.000000E+00 -5.333510E-05  0.000000E+00  0.000000E+00  5.801281E+02  0.000000E+00 -2.296706E-10  0.000000E+00  0.000000E+00  1.156961E-10           1 
 1.550000E+01  5.000000E-01  5.000000E-01  7.500000E+00  6.586169E-09  2.159222E-08  9.999997E-07  1.870251E-04  9.999995E-16  2.100000E-01  1.500000E-01  0.000000E+00  0.000000E+00  0.000000E+00  0.000000E+00  6.360000E-03  6.360000E-03  6.360000E-03  7.890370E-28  2.495155E-20  7.890374E-13  1.686933E-12  1.686933E-12  1.064382E-10  5.094451E-16  5.094452E-12  0.000000E+00 -5.333510E-05  0.000000E+00  0.000000E+00  5.801281E+02  0.000000E+00 -2.296706E-10  0.000000E+00  0.000000E+00  1.156961E-10           1 
 1.650000E+01  5.000000E-01  5.000000E-01  7.500000E+00  6.586169E-09  2.159222E-08  9.999997E-07  1.870251E-04  9.999995E-16  2.100000E-01  1.500000E-01  0.000000E+00  0.000000E+00  0.000000E+00  0.000000E+00  6.360000E-03  6.360000E-03  6.360000E-03  7.890370E-28  2.495155E-20  7.890374E-13  1.686933E-12  1.686933E-12  1.064382E-10  5.094451E-16  5.094452E-12  0.000000E+00 -5.333510E-05  0.000000E+00  0.000000E+00  5.801281E+02  0.000000E+00 -2.296706E-10  0.000000E+00  0.000000E+00  1.156961E-10           1 
 1.750000E+01  5.000000E-01  5.000000E-01  7.500000E+00  6.586169E-09  2.159222E-08  9.999997E-07  1.870251E-04  9.999995E-16  2.100000E-01  1.500000E-01  0.000000E+00  0.000000E+00  0.000000E+00  0.000000E+00  6.360000E-03  6.360000E-03  6.360000E-03  7.890370E-28  2.495155E-20  7.890374E-13  1.686933E-12  1.686933E-12  1.064382E-10  5.094451E-16  5.094452E-12  0.000000E+00 -5.333510E-05  0.000000E+00  0.000000E+00  5.801281E+02  0.000000E+00 -2.296706E-10  0.000000E+00  0.000000E+00  1.156961E-10           1 
 1.850000E+01  5.000000E-01  5.000000E-01  7.500000E+00  6.586169E-09  2.159222E-08  9.999997E-07  1.870251E-04  9.999995E-16  2.100000E-01  1.500000E-01  0.000000E+00  0.000000E+00  0.000000E+00  0.000000E+00  6.360000E-03  6.360000E-03  6.360000E-03  7.890370E-28  2.495155E-20  7.890374E-13  1.686933E-12  1.686933E-12  1.064382E-10  5.094451E-16  5.094452E-12  0.000000E+00 -5.333510E-05  0.000000E+00  0.000000E+00  5.801281E+02  0.000000E+00 -2.296706E-10  0.000000E+00  0.000000E+00  1.156961E-10           1 
 1.950000E+01  5.000000E-01  5.000000E-01  7.500000E+00  6.586169E-09  2.159222E-08  9.999997E-07  1.870251E-04  9.999995E-16  2.100000E-01  1.500000E-01  0.000000E+00  0.000000E+00  0.000000E+00  0.000000E+00  6.360000E-03  6.360000E-03  6.360000E-03  7.890370E-28  2.495155E-20  7.890374E-13  1.686933E-12  1.686933E-12  1.064382E-10  5.094451E-16  5.094452E-12  0.000000E+00 -5.333510E-05  0.000000E+00  0.000000E+00  5.801281E+02  0.000000E+00 -2.296706E-10  0.000000E+00  0.000000E+00  1.156961E-10           1 
 2.050000E+01  5.000000E-01  5.000000E-01  7.500000E+00  6.586169E-09  2.159222E-08  9.999997E-07  1.870251E-04  9.999995E-16  2.100000E-01  1.500000E-01  0.000000E+00  0.000000E+00  0.000000E+00  0.000000E+00  6.360000E-03  6.360000E-03  6.360000E-03  7.890370E-28  2.495155E-20  7.890374E-13  1.686933E-12  1.686933E-12  1.064382E-10  5.094451E-16  5.094452E-12  0.000000E+00 -5.333510E-05  0.000000E+00  0.000000E+00  5.801281E+02  0.000000E+00 -2.296706E-10  0.000000E+00  0.000000E+00  1.156961E-10           1 
 2.150000E+01  5.000000E-01  5.000000E-01  7.500000E+00  6.586169E-09  2.159222E-08  9.999997E-07  1.870251E-04  9.999995E-16  2.100000E-01  1.500000E-01  0.000000E+00  0.000000E+00  0.000000E+00  0.000000E+00  6.360000E-03  6.360000E-03  6.360000E-03  7.890370E-28  2.495155E-20  7.890374E-13  1.686933E-12  1.686933E-12  1.064382E-10  5.094451E-16  5.094452E-12  0.000000E+00 -5.333510E-05  0.000000E+00  0.000000E+00  5.801281E+02  0.000000E+00 -2.296706E-10  0.000000E+00  0.000000E+00  1.156961E-10           1 
 2.250000E+01  5.000000E-01  5.000000E-01  7.500000E+00  6.586169E-09  2.159222E-08  9.999997E-07  1.870251E-04  9.999995E-16  2.100000E-01  1.500000E-01  0.000000E+00  0.000000E+00  0.000000E+00  0.000000E+00  6.360000E-03  6.360000E-03  6.360000E-03  7.890370E-28  2.495155E-20  7.890374E-13  1.686933E-12  1.686933E-12  1.064382E-10  5.094451E-16  5.094452E-12  0.000000E+00 -5.333510E-05  0.000000E+00  0.000000E+00  5.801281E+02  0.000000E+00 -2.296706E-10  0.000000E+00  0.000000E+00  1.156961E-10           1 
 2.350000E+01  5.000000E-01  5.000000E-01  7.500000E+00  6.586169E-09  2.159222E-08  9.999997E-07  1.870251E-04  9.999995E-16  2.100000E-01  1.500000E-01  0.000000E+00  0.000000E+00  0.000000E+00  0.000000E+00  6.360000E-03  6.360000E-03  6.360000E-03  7.890370E-28  2.495155E-20  7.890374E-13  1.686933E-12  1.686933E-12  1.064382E-10  5.094451E-16  5.094452E-12  0.000000E+00 -5.333510E-05  0.000000E+00  0.000000E+00  5.801281E+02  0.000000E+00 -2.296706E-10  0.000000E+00  0.000000E+00  1.156961E-10           1 
 2.450000E+01  5.000000E-01  5.000000E-01  7.500000E+00  6.586169E-09  2.159222E-08  9.999997E-07  1.870251E-04  9.999995E-16  2.100000E-01  1.500000E-01  0.000000E+00  0.000000E+00  0.000000E+00  0.000000E+00  6.360000E-03  6.360000E-03  6.360000E-03  7.890370E-28  2.495155E-20  7.890374E-13  1.686933E-12  1.686933E-12  1.064382E-10  5.094451E-16  5.094452E-12  0.000000E+00 -5.333510E-05  0.000000E+00  0.000000E+00  5.801281E+02  0.000000E+00 -2.296706E-10  0.000000E+00  0.000000E+00  1.156961E-10           1 
 2.550000E+01  5.000000E-01  5.000000E-01  7.500000E+00  6.586169E-09  2.159222E-08  9.999997E-07  1.870251E-04  9.999995E-16  2.100000E-01  1.500000E-01  0.000000E+00  0.000000E+00  0.000000E+00  0.000000E+00  6.360000E-03  6.360000E-03  6.360000E-03  7.890370E-28  2.495155E-20  7.890374E-13  1.686933E-12  1.686933E-12  1.064382E-10  5.094451E-16  5.094452E-12  0.000000E+00 -5.333510E-05  0.000000E+00  0.000000E+00  5.801281E+02  0.000000E+00 -2.296706E-10  0.000000E+00  0.000000E+00  1.156961E-10           1 
 2.650000E+01  5.000000E-01  5.000000E-01  7.500000E+00  6.586169E-09  2.159222E-08  9.999997E-07  1.870251E-04  9.999995E-16  2.100000E-01  1.500000E-01  0.000000E+00  0.000000E+00  0.000000E+00  0.000000E+00  6.360000E-03  6.360000E-03  6.360000E-03  7.890370E-28  2.495155E-20  7.890374E-13  1.686933E-12  1.686933E-12  1.064382E-10  5.094451E-16  5.094452E-12  0.000000E+00 -5.333510E-05  0.000000E+00  0.000000E+00  5.801281E+02  0.000000E+00 -2.296706E-10  0.000000E+00  0.000000E+00  1.156961E-10           1 
 2.750000E+01  5.000000E-01  5.000000E-01  7.500000E+00  6.586169E-09  2.159222E-08  9.999997E-07  1.870251E-04  9.999995E-16  2.100000E-01  1.500000E-01  0.000000E+00  0.000000E+00  0.000000E+00  0.000000E+00  6.360000E-03  6.360000E-03  6.360000E-03  7.890370E-28  2.495155E-20  7.890374E-13  1.686933E-12  1.686933E-12  1.064382E-10  5.094451E-16  5.094452E-12  0.000000E+00 -5.333510E-05  0.000000E+00  0.000000E+00  5.801281E+02  0.000000E+00 -2.296706E-10  0.000000E+00  0.000000E+00  1.156961E-10           1 
 2.850000E+01  5.000000E-01  5.000000E-01  7.500000E+00  6.586169E-09  2.159222E-08  9.999997E-07  1.870251E-04  9.999995E-16  2.100000E-01  1.500000E-01  0.000000E+00  0.000000E+00  0.000000E+00  0.000000E+00  6.360000E-03  6.360000E-03  6.360000E-03  7.890370E-28  2.495155E-20  7.890374E-13  1.686933E-12  1.686933E-12  1.064382E-10  5.094451E-16  5.094452E-12  0.000000E+00 -5.333510E-05  0.000000E+00  0.000000E+00  5.801281E+02  0.000000E+00 -2.296706E-10  0.000000E+00  0.000000E+00  1.156961E-10           1 
 2.950000E+01  5.000000E-01  5.000000E-01  7.500000E+00  6.586169E-09  2.159222E-08  9.999997E-07  1.870251E-04  9.999995E-16  2.100000E-01  1.500000E-01  0.000000E+00  0.000000E+00  0.000000E+00  0.000000E+00  6.360000E-03  6.360000E-03  6.360000E-03  7.890370E-28  2.495155E-20  7.890374E-13  1.686933E-12  1.686933E-12  1.064382E-10  5.094451E-16  5.094452E-12  0.000000E+00 -5.333510E-05  0.000000E+00  0.000000E+00  5.801281E+02  0.000000E+00 -2.296706E-10  0.000000E+00  0.000000E+00  1.156961E-10           1 
 3.050000E+01  5.000000E-01  5.000000E-01  7.500000E+00  6.586169E-09  2.159222E-08  9.999997E-07  1.870251E-04  9.999995E-16  2.100000E-01  1.500000E-01  0.000000E+00  0.000000E+00  0.000000E+00  0.000000E+00  6.360000E-03  6.360000E-03  6.360000E-03  7.890370E-28  2.495155E-20  7.890374E-13  1.686933E-12  1.686933E-12  1.064382E-10  5.094451E-16  5.094452E-12  0.000000E+00 -5.333510E-05  0.000000E+00  0.000000E+00  5.801281E+02  0.000000E+00 -2.296706E-10  0.000000E+00  0.000000E+00  1.156961E-10           1 
 3.150000E+01  5.000000E-01  5.000000E-01  7.500000E+00  6.586169E-09  2.159222E-08  9.999997E-07  1.870251E-04  9.999995E-16  2.100000E-01  1.500000E-01  0.000000E+00  0.000000E+00  0.000000E+00  0.000000E+00  6.360000E-03  6.360000E-03  6.360000E-03  7.890370E-28  2.495155E-20  7.890374E-13  1.686933E-12  1.686933E-12  1.064382E-10  5.094451E-16  5.094452E-12  0.000000E+00 -5.333510E-05  0.000000E+00  0.000000E+00  5.801281E+02  0.000000E+00 -2.296706E-10  0.000000E+00  0.000000E+00  1.156961E-10           1 
 3.250000E+01  5.000000E-01  5.000000E-01  7.500000E+00  6.586169E-09  2.159222E-08  9.999997E-07  1.870251E-04  9.999995E-16  2.100000E-01  1.500000E-01  0.000000E+00  0.000000E+00  0.000000E+00  0.000000E+00  6.360000E-03  6.360000E-03  6.360000E-03  7.890370E-28  2.495155E-20  7.890374E-13  1.686933E-12  1.686933E-12  1.064382E-10  5.094451E-16  5.094452E-12  0.000000E+00 -5.333510E-05  0.000000E+00  0.000000E+00  5.801281E+02  0.000000E+00 -2.296706E-10  0.000000E+00  0.000000E+00  1.156961E-10           1 
 3.350000E+01  5.000000E-01  5.000000E-01  7.500000E+00  6.586169E-09  2.159222E-08  9.999997E-07  1.870251E-04  9.999995E-16  2.100000E-01  1.500000E-01  0.000000E+00  0.000000E+00  0.000000E+00  0.000000E+00  6.360000E-03  6.360000E-03  6.360000E-03  7.890370E-28  2.495155E-20  7.890374E-13  1.686933E-12  1.686933E-12  1.064382E-10  5.094451E-16  5.094452E-12  0.000000E+00 -5.333510E-05  0.000000E+00  0.000000E+00  5.801281E+02  0.000000E+00 -2.296706E-10  0.000000E+00  0.000000E+00  1.156961E-10           1 
 3.450000E+01  5.000000E-01  5.000000E-01  7.500000E+00  6.586169E-09  2.159222E-08  9.999997E-07  1.870251E-04  9.999995E-16  2.100000E-01  1.500000E-01  0.000000E+00  0.000000E+00  0.000000E+00  0.000000E+00  6.360000E-03  6.360000E-03  6.360000E-03  7.890370E-28  2.495155E-20  7.890374E-13  1.686933E-12  1.686933E-12  1.064382E-10  5.094451E-16  5.094452E-12  0.000000E+00 -5.333510E-05  0.000000E+00  0.000000E+00  5.801281E+02  0.000000E+00 -2.296706E-10  0.000000E+00  0.000000E+00  1.156961E-10           1 
 3.550000E+01  5.000000E-01  5.000000E-01  7.500000E+00  6.586169E-09  2.159222E-08  9.999997E-07  1.870251E-04  9.999995E-16  2.100000E-01  1.500000E-01  0.000000E+00  0.000000E+00  0.000000E+00  0.000000E+00  6.360000E-03  6.360000E-03  6.360000E-03  7.890370E-28  2.495155E-20  7.890374E-13  1.686933E-12  1.686933E-12  1.064382E-10  5.094451E-16  5.094452E-12  0.000000E+00 -5.333510E-05  0.000000E+00  0.000000E+00  5.801281E+02  0.000000E+00 -2.296706E-10  0.000000E+00  0.000000E+00  1.156961E-10           1 
 3.650000E+01  5.000000E-01  5.000000E-01  7.500000E+00  6.586169E-09  2.159222E-08  9.999997E-07  1.870251E-04  9.999995E-16  2.100000E-01  1.500000E-01  0.000000E+00  0.000000E+00  0.000000E+00  0.000000E+00  6.360000E-03  6.360000E-03  6.360000E-03  7.890370E-28  2.495155E-20  7.890374E-13  1.686933E-12  1.686933E-12  1.064382E-10  5.094451E-16  5.094452E-12  0.000000E+00 -5.333510E-05  0.000000E+00  0.000000E+00  5.801281E+02  0.000000E+00 -2.296706E-10  0.000000E+00  0.000000E+00  1.156961E-10           1 
 3.750000E+01  5.000000E-01  5.000000E-01  7.500000E+00  6.586169E-09  2.159222E-08  9.999997E-07  1.870251E-04  9.999995E-16  2.100000E-01  1.500000E-01  0.000000E+00  0.000000E+00  0.000000E+00  0.000000E+00  6.360000E-03  6.360000E-03  6.360000E-03  7.890370E-28  2.495155E-20  7.890374E-13  1.686933E-12  1.686933E-12  1.064382E-10  5.094451E-16  5.094452E-12  0.000000E+00 -5.333510E-05  0.000000E+00  0.000000E+00  5.801281E+02  0.000000E+00 -2.296706E-10  0.000000E+00  0.000000E+00  1.156961E-10           1 
 3.850000E+01  5.000000E-01  5.000000E-01  7.500000E+00  6.586169E-09  2.159222E-08  9.999997E-07  1.870251E-04  9.999995E-16  2.100000E-01  1.500000E-01  0.000000E+00  0.000000E+00  0.000000E+00  0.000000E+00  6.360000E-03  6.360000E-03  6.360000E-03  7.890370E-28  2.495155E-20  7.890374E-13  1.686933E-12  1.686933E-12  1.064382E-10  5.094451E-16  5.094452E-12  0.000000E+00 -5.333510E-05  0.000000E+00  0.000000E+00  5.801281E+02  0.000000E+00 -2.296706E-10  0.000000E+00  0.000000E+00  1.156961E-10           1 
 3.950000E+01  5.000000E-01  5.000000E-01  7.500000E+00  6.586169E-09  2.159222E-08  9.999997E-07  1.870251E-04  9.999995E-16  2.100000E-01  1.500000E-01  0.000000E+00  0.000000E+00  0.000000E+00  0.000000E+00  6.360000E-03  6.360000E-03  6.360000E-03  7.890370E-28  2.495155E-20  7.890374E-13  1.686933E-12  1.686933E-12  1.064382E-10  5.094451E-16  5.094452E-12  0.000000E+00 -5.333510E-05  0.000000E+00  0.000000E+00  5.801281E+02  0.000000E+00 -2.296706E-10  0.000000E+00  0.000000E+00  1.156961E-10           1 
 4.050000E+01  5.000000E-01  5.000000E-01  7.500000E+00  6.586169E-09  2.159222E-08  9.999997E-07  1.870251E-04  9.999995E-16  2.100000E-01  1.500000E-01  0.000000E+00  0.000000E+00  0.000000E+00  0.000000E+00  6.360000E-03  6.360000E-03  6.360000E-03  7.890370E-28  2.495155E-20  7.890374E-13  1.686933E-12  1.686933E-12  1.064382E-10  5.094451E-16  5.094452E-12  0.000000E+00 -5.333510E-05  0.000000E+00  0.000000E+00  5.801281E+02  0.000000E+00 -2.296706E-10  0.000000E+00  0.000000E+00  1.156961E-10           1 
 4.150000E+01  5.000000E-01  5.000000E-01  7.500000E+00  6.586169E-09  2.159222E-08  9.999997E-07  1.870251E-04  9.999995E-16  2.100000E-01  1.500000E-01  0.000000E+00  0.000000E+00  0.000000E+00  0.000000E+00  6.360000E-03  6.360000E-03  6.360000E-03  7.890370E-28  2.495155E-20  7.890374E-13  1.686933E-12  1.686933E-12  1.064382E-10  5.094451E-16  5.094452E-12  0.000000E+00 -5.333510E-05  0.000000E+00  0.000000E+00  5.801281E+02  0.000000E+00 -2.296706E-10  0.000000E+00  0.000000E+00  1.156961E-10           1 
 4.250000E+01  5.000000E-01  5.000000E-01  7.500000E+00  6.586169E-09  2.159222E-08  9.999997E-07  1.870251E-04  9.999995E-16  2.100000E-01  1.500000E-01  0.000000E+00  0.000000E+00  0.000000E+00  0.000000E+00  6.360000E-03  6.360000E-03  6.360000E-03  7.890370E-28  2.495155E-20  7.890374E-13  1.686933E-12  1.686933E-12  1.064382E-10  5.094451E-16  5.094452E-12  0.000000E+00 -5.333510E-05  0.000000E+00  0.000000E+00  5.801281E+02  0.000000E+00 -2.296706E-10  0.000000E+00  0.000000E+00  1.156961E-10           1 
 4.350000E+01  5.000000E-01  5.000000E-01  7.500000E+00  6.586169E-09  2.159222E-08  9.999997E-07  1.870251E-04  9.999995E-16  2.100000E-01  1.500000E-01  0.000000E+00  0.000000E+00  0.000000E+00  0.000000E+00  6.360000E-03  6.360000E-03  6.360000E-03  7.890370E-28  2.495155E-20  7.890374E-13  1.686933E-12  1.686933E-12  1.064382E-10  5.094451E-16  5.094452E-12  0.000000E+00 -5.333510E-05  0.000000E+00  0.000000E+00  5.801281E+02  0.000000E+00 -2.296706E-10  0.000000E+00  0.000000E+00  1.156961E-10           1 
 4.450000E+01  5.000000E-01  5.000000E-01  7.500000E+00  6.586169E-09  2.159222E-08  9.999997E-07  1.870251E-04  9.999995E-16  2.100000E-01  1.500000E-01  0.000000E+00  0.000000E+00  0.000000E+00  0.000000E+00  6.360000E-03  6.360000E-03  6.360000E-03  7.890370E-28  2.495155E-20  7.890374E-13  1.686933E-12  1.686933E-12  1.064382E-10  5.094451E-16  5.094452E-12  0.000000E+00 -5.333510E-05  0.000000E+00  0.000000E+00  5.801281E+02  0.000000E+00 -2.296706E-10  0.000000E+00  0.000000E+00  1.156961E-10           1 
 4.550000E+01  5.000000E-01  5.000000E-01  7.500000E+00  6.586169E-09  2.159222E-08  9.999997E-07  1.870251E-04  9.999995E-16  2.100000E-01  1.500000E-01  0.000000E+00  0.000000E+00  0.000000E+00  0.000000E+00  6.360000E-03  6.360000E-03  6.360000E-03  7.890370E-28  2.495155E-20  7.890374E-13  1.686933E-12  1.686933E-12  1.064382E-10  5.094451E-16  5.094452E-12  0.000000E+00 -5.333510E-05  0.000000E+00  0.000000E+00  5.801281E+02  0.000000E+00 -2.296706E-10  0.000000E+00  0.000000E+00  1.156961E-10           1 
 4.650000E+01  5.000000E-01  5.000000E-01  7.500000E+00  6.586169E-09  2.159222E-08  9.999997E-07  1.870251E-04  9.999995E-16  2.100000E-01  1.500000E-01  0.000000E+00  0.000000E+00  0.000000E+00  0.000000E+00  6.360000E-03  6.360000E-03  6.360000E-03  7.890370E-28  2.495155E-20  7.890374E-13  1.686933E-12  1.686933E-12  1.064382E-10  5.094451E-16  5.094452E-12  0.000000E+00 -5.333510E-05  0.000000E+00  0.000000E+00  5.801281E+02  0.000000E+00 -2.296706E-10  0.000000E+00  0.000000E+00  1.156961E-10           1 
 4.750000E+01  5.000000E-01  5.000000E-01  7.500000E+00  6.586169E-09  2.159222E-08  9.999997E-07  1.870251E-04  9.999995E-16  2.100000E-01  1.500000E-01  0.000000E+00  0.000000E+00  0.000000E+00  0.000000E+00  6.360000E-03  6.360000E-03  6.360000E-03  7.890370E-28  2.495155E-20  7.890374E-13  1.686933E-12  1.686933E-12  1.064382E-10  5.094451E-16  5.094452E-12  0.000000E+00 -5.333510E-05  0.000000E+00  0.000000E+00  5.801281E+02  0.000000E+00 -2.296706E-10  0.000000E+00  0.000000E+00  1.156961E-10           1 
 4.850000E+01  5.000000E-01  5.000000E-01  7.500000E+00  6.586169E-09  2.159222E-08  9.999997E-07  1.870251E-04  9.999995E-16  2.100000E-01  1.500000E-01  0.000000E+00  0.000000E+00  0.000000E+00  0.000000E+00  6.360000E-03  6.360000E-03  6.360000E-03  7.890370E-28  2.495155E-20  7.890374E-13  1.686933E-12  1.686933E-12  1.064382E-10  5.094451E-16  5.094452E-12  0.000000E+00 -5.333510E-05  0.000000E+00  0.000000E+00  5.801281E+02  0.000000E+00 -2.296706E-10  0.000000E+00  0.000000E+00  1.156961E-10           1 
 4.950000E+01  5.000000E-01  5.000000E-01  7.500000E+00  6.586169E-09  2.159222E-08  9.999997E-07  1.870251E-04  9.999995E-16  2.100000E-01  1.500000E-01  0.000000E+00  0.000000E+00  0.000000E+00  0.000000E+00  6.360000E-03  6.360000E-03  6.360000E-03  7.890370E-28  2.495155E-20  7.890374E-13  1.686933E-12  1.686933E-12  1.064382E-10  5.094451E-16  5.094452E-12  0.000000E+00 -5.333510E-05  0.000000E+00  0.000000E+00  5.801281E+02  0.000000E+00 -2.296706E-10  0.000000E+00  0.000000E+00  1.156961E-10           1 
 5.050000E+01  5.000000E-01  5.000000E-01  7.500000E+00  6.586169E-09  2.159222E-08  9.999997E-07  1.870251E-04  9.999995E-16  2.100000E-01  1.500000E-01  0.000000E+00  0.000000E+00  0.000000E+00  0.000000E+00  6.360000E-03  6.360000E-03  6.360000E-03  7.890370E-28  2.495155E-20  7.890374E-13  1.686933E-12  1.686933E-12  1.064382E-10  5.094451E-16  5.094452E-12  0.000000E+00 -5.333510E-05  0.000000E+00  0.000000E+00  5.801281E+02  0.000000E+00 -2.296706E-10  0.000000E+00  0.000000E+00  1.156961E-10           1 
 5.150000E+01  5.000000E-01  5.000000E-01  7.500000E+00  6.586169E-09  2.159222E-08  9.999997E-07  1.870251E-04  9.999995E-16  2.100000E-01  1.500000E-01  0.000000E+00  0.000000E+00  0.000000E+00  0.000000E+00  6.360000E-03  6.360000E-03  6.360000E-03  7.890370E-28  2.495155E-20  7.890374E-13  1.686933E-12  1.686933E-12  1.064382E-10  5.094451E-16  5.094452E-12  0.000000E+00 -5.333510E-05  0.000000E+00  0.000000E+00  5.801281E+02  0.000000E+00 -2.296706E-10  0.000000E+00  0.000000E+00  1.156961E-10           1 
 5.250000E+01  5.000000E-01  5.000000E-01  7.500000E+00  6.586169E-09  2.159222E-08  9.999997E-07  1.870251E-04  9.999995E-16  2.100000E-01  1.500000E-01  0.000000E+00  0.000000E+00  0.000000E+00  0.000000E+00  6.360000E-03  6.360000E-03  6.360000E-03  7.890370E-28  2.495155E-20  7.890374E-13  1.686933E-12  1.686933E-12  1.064382E-10  5.094451E-16  5.094452E-12  0.000000E+00 -5.333510E-05  0.000000E+00  0.000000E+00  5.801281E+02  0.000000E+00 -2.296706E-10  0.000000E+00  0.000000E+00  1.156961E-10           1 
 5.350000E+01  5.000000E-01  5.000000E-01  7.500000E+00  6.586169E-09  2.159222E-08  9.999997E-07  1.870251E-04  9.999995E-16  2.100000E-01  1.500000E-01  0.000000E+00  0.000000E+00  0.000000E+00  0.000000E+00  6.360000E-03  6.360000E-03  6.360000E-03  7.890370E-28  2.495155E-20  7.890374E-13  1.686933E-12  1.686933E-12  1.064382E-10  5.094451E-16  5.094452E-12  0.000000E+00 -5.333510E-05  0.000000E+00  0.000000E+00  5.801281E+02  0.000000E+00 -2.296706E-10  0.000000E+00  0.000000E+00  1.156961E-10           1 
 5.450000E+01  5.000000E-01  5.000000E-01  7.500000E+00  6.586169E-09  2.159222E-08  9.999997E-07  1.870251E-04  9.999995E-16  2.100000E-01  1.500000E-01  0.000000E+00  0.000000E+00  0.000000E+00  0.000000E+00  6.360000E-03  6.360000E-03  6.360000E-03  7.890370E-28  2.495155E-20  7.890374E-13  1.686933E-12  1.686933E-12  1.064382E-10  5.094451E-16  5.094452E-12  0.000000E+00 -5.333510E-05  0.000000E+00  0.000000E+00  5.801281E+02  0.000000E+00 -2.296706E-10  0.000000E+00  0.000000E+00  1.156961E-10           1 
 5.550000E+01  5.000000E-01  5.000000E-01  7.500000E+00  6.586169E-09  2.159222E-08  9.999997E-07  1.870251E-04  9.999995E-16  2.100000E-01  1.500000E-01  0.000000E+00  0.000000E+00  0.000000E+00  0.000000E+00  6.360000E-03  6.360000E-03  6.360000E-03  7.890370E-28  2.495155E-20  7.890374E-13  1.686933E-12  1.686933E-12  1.064382E-10  5.094451E-16  5.094452E-12  0.000000E+00 -5.333510E-05  0.000000E+00  0.000000E+00  5.801281E+02  0.000000E+00 -2.296706E-10  0.000000E+00  0.000000E+00  1.156961E-10           1 