TITLE = "  5.0000E-01 [y]"
VARIABLES="X [m]","Y [m]","Z [m]"," 4-pH"," 5-Al+++_tot_m"," 6-H+_tot_m"," 7-HPO4--_tot_m"," 8-SiO2(aq)_tot_m"," 9-UO2++_tot_m","10-Quartz_vf","11-Kaolinite_vf","12-(UO2)3(PO4)2.4H2O_vf","13-Quartz_rt","14-Kaolinite_rt","15-(UO2)3(PO4)2.4H2O_rt","16->SiOH","17->FeOH","18->AlOH","19->SiOUO3H3++","20->SiOUO3H2+","21->SiOUO3H","22->SiOUO3-","23->SiOUO2(OH)2-","24->FeOHUO3","25->FeOHUO2++","26->AlOUO2+","27-Al+++_kd","28-H+_kd","29-HPO4--_kd","30-SiO2(aq)_kd","31-UO2++_kd","32-Al+++_total_sorb","33-H+_total_sorb","34-HPO4--_total_sorb","35-SiO2(aq)_total_sorb","36-UO2++_total_sorb","37-Material_ID"
ZONE T= "  5.0000E-01", I=  100, J=    1, K=    1, DATAPACKING=POINT
 5.000000E-01  5.000000E-01  5.000000E-01  2.930000E+00  2.890870E-05  1.280702E-03  7.102790E-05  2.527990E-04  3.541350E-05  2.100000E-01  1.500000E-01  3.605742E-20  1.523919E-32 -1.999997E-31  4.987564E-24  6.359634E-03  1.218213E-04  4.302931E-04  5.043139E-13  4.292407E-10  3.653431E-07  2.102330E-11  2.102330E-11  9.440437E-07  6.237235E-03  5.929707E-03  0.000000E+00 -2.322640E-02  0.000000E+00  0.000000E+00  1.722917E+00  0.000000E+00 -5.932326E-03  0.000000E+00  0.000000E+00  1.216825E-02           1 
 1.500000E+00  5.000000E-01  5.000000E-01  2.930000E+00  2.890870E-05  1.280702E-03  7.102790E-05  2.527990E-04  3.541350E-05  2.100000E-01  1.500000E-01  3.360629E-20  1.523919E-32 -1.999997E-31  4.987563E-24  6.359634E-03  1.218213E-04  4.302931E-04  5.043139E-13  4.292407E-10  3.653431E-07  2.102330E-11  2.102330E-11  9.440437E-07  6.237235E-03  5.929707E-03  0.000000E+00 -2.322640E-02  0.000000E+00  0.000000E+00  1.722917E+00  0.000000E+00 -5.932326E-03  0.000000E+00  0.000000E+00  1.216825E-02           1 
 2.500000E+00  5.000000E-01  5.000000E-01  2.930000E+00  2.890870E-05  1.280702E-03  7.102790E-05  2.527990E-04  3.541349E-05  2.100000E-01  1.500000E-01  3.129633E-20  1.523919E-32 -1.999997E-31  4.987560E-24  6.359634E-03  1.218213E-04  4.302932E-04  5.043138E-13  4.292406E-10  3.653430E-07  2.102330E-11  2.102330E-11  9.440437E-07  6.237235E-03  5.929707E-03  0.000000E+00 -2.322640E-02  0.000000E+00  0.000000E+00  1.722917E+00  0.000000E+00 -5.932326E-03  0.000000E+00  0.000000E+00  1.216825E-02           1 
 3.500000E+00  5.000000E-01  5.000000E-01  2.930000E+00  2.890870E-05  1.280702E-03  7.102790E-05  2.527990E-04  3.541344E-05  2.100000E-01  1.500000E-01  2.880319E-20  1.523919E-32 -1.999997E-31  4.987531E-24  6.359634E-03  1.218216E-04  4.302940E-04  5.043128E-13  4.292398E-10  3.653423E-07  2.102326E-11  2.102326E-11  9.440436E-07  6.237234E-03  5.929706E-03  0.000000E+00 -2.322640E-02  0.000000E+00  0.000000E+00  1.722920E+00  0.000000E+00 -5.932325E-03  0.000000E+00  0.000000E+00  1.216825E-02           1 
 4.500000E+00  5.000000E-01  5.000000E-01  2.930000E+00  2.890870E-05  1.280702E-03  7.102789E-05  2.527990E-04  3.541304E-05  2.100000E-01  1.500000E-01  2.603514E-20  1.523919E-32 -1.999997E-31  4.987335E-24  6.359634E-03  1.218232E-04  4.302995E-04  5.043059E-13  4.292339E-10  3.653373E-07  2.102296E-11  2.102296E-11  9.440433E-07  6.237233E-03  5.929700E-03  0.000000E+00 -2.322637E-02  0.000000E+00  0.000000E+00  1.722938E+00  0.000000E+00 -5.932320E-03  0.000000E+00  0.000000E+00  1.216824E-02           1 
 5.500000E+00  5.000000E-01  5.000000E-01  2.930000E+00  2.890868E-05  1.280703E-03  7.102787E-05  2.527990E-04  3.541110E-05  2.100000E-01  1.500000E-01  2.319260E-20  1.523918E-32 -1.999997E-31  4.986362E-24  6.359634E-03  1.218313E-04  4.303267E-04  5.042719E-13  4.292048E-10  3.653124E-07  2.102152E-11  2.102152E-11  9.440413E-07  6.237225E-03  5.929673E-03  0.000000E+00 -2.322625E-02  0.000000E+00  0.000000E+00  1.723028E+00  0.000000E+00 -5.932293E-03  0.000000E+00  0.000000E+00  1.216821E-02           1 
 6.500000E+00  5.000000E-01  5.000000E-01  2.929999E+00  2.890864E-05  1.280706E-03  7.102781E-05  2.527989E-04  3.540381E-05  2.100000E-01  1.500000E-01  2.063095E-20  1.523917E-32 -1.999997E-31  4.982714E-24  6.359634E-03  1.218615E-04  4.304288E-04  5.041445E-13  4.290957E-10  3.652189E-07  2.101611E-11  2.101611E-11  9.440336E-07  6.237195E-03  5.929571E-03  0.000000E+00 -2.322580E-02  0.000000E+00  0.000000E+00  1.723363E+00  0.000000E+00 -5.932190E-03  0.000000E+00  0.000000E+00  1.216808E-02           1 
 7.500000E+00  5.000000E-01  5.000000E-01  2.929997E+00  2.890854E-05  1.280716E-03  7.102764E-05  2.527986E-04  3.538131E-05  2.100000E-01  1.500000E-01  1.815206E-20  1.523915E-32 -1.999997E-31  4.971439E-24  6.359635E-03  1.219549E-04  4.307446E-04  5.037508E-13  4.287583E-10  3.649297E-07  2.099936E-11  2.099936E-11  9.440094E-07  6.237101E-03  5.929255E-03  0.000000E+00 -2.322438E-02  0.000000E+00  0.000000E+00  1.724402E+00  0.000000E+00 -5.931874E-03  0.000000E+00  0.000000E+00  1.216767E-02           1 
 8.500000E+00  5.000000E-01  5.000000E-01  2.929990E+00  2.890828E-05  1.280742E-03  7.102718E-05  2.527980E-04  3.532079E-05  2.100000E-01  1.500000E-01  1.570804E-20  1.523909E-32 -1.999997E-31  4.941181E-24  6.359635E-03  1.222067E-04  4.315958E-04  5.026924E-13  4.278512E-10  3.641525E-07  2.095433E-11  2.095433E-11  9.439439E-07  6.236849E-03  5.928404E-03  0.000000E+00 -2.322056E-02  0.000000E+00  0.000000E+00  1.727199E+00  0.000000E+00 -5.931021E-03  0.000000E+00  0.000000E+00  1.216656E-02           1 
 9.500000E+00  5.000000E-01  5.000000E-01  2.929975E+00  2.890769E-05  1.280807E-03  7.102667E-05  2.527967E-04  3.517598E-05  2.100000E-01  1.500000E-01  1.291255E-20  1.523895E-32 -1.999997E-31  4.869158E-24  6.359637E-03  1.228140E-04  4.336475E-04  5.001584E-13  4.256797E-10  3.622917E-07  2.084653E-11  2.084653E-11  9.437866E-07  6.236242E-03  5.926352E-03  0.000000E+00 -2.321133E-02  0.000000E+00  0.000000E+00  1.733931E+00  0.000000E+00 -5.928965E-03  0.000000E+00  0.000000E+00  1.216390E-02           1 
 1.050000E+01  5.000000E-01  5.000000E-01  2.929944E+00  2.890650E-05  1.280948E-03  7.102542E-05  2.527939E-04  3.486277E-05  2.100000E-01  1.500000E-01  1.069258E-20  1.523868E-32 -1.999997E-31  4.715313E-24  6.359641E-03  1.241449E-04  4.381402E-04  4.946911E-13  4.209957E-10  3.582789E-07  2.061412E-11  2.061412E-11  9.434470E-07  6.234912E-03  5.921860E-03  0.000000E+00 -2.319117E-02  0.000000E+00  0.000000E+00  1.748670E+00  0.000000E+00 -5.924464E-03  0.000000E+00  0.000000E+00  1.215807E-02           1 
 1.150000E+01  5.000000E-01  5.000000E-01  2.929886E+00  2.890423E-05  1.281241E-03  7.105415E-05  2.527886E-04  3.429216E-05  2.100000E-01  1.500000E-01  8.458377E-21  1.523815E-32 -1.999997E-31  4.441990E-24  6.359649E-03  1.266757E-04  4.466683E-04  4.846118E-13  4.123635E-10  3.508863E-07  2.018611E-11  2.018611E-11  9.428151E-07  6.232382E-03  5.913332E-03  0.000000E+00 -2.315243E-02  0.000000E+00  0.000000E+00  1.776149E+00  0.000000E+00 -5.915920E-03  0.000000E+00  0.000000E+00  1.214701E-02           1 
 1.250000E+01  5.000000E-01  5.000000E-01  2.929773E+00  2.890013E-05  1.281779E-03  7.107107E-05  2.527790E-04  3.314451E-05  2.100000E-01  1.500000E-01  6.091439E-21  1.523719E-32 -1.999997E-31  3.917973E-24  6.359663E-03  1.319757E-04  4.644712E-04  4.647557E-13  3.953649E-10  3.363346E-07  1.934394E-11  1.934394E-11  9.415242E-07  6.227083E-03  5.895529E-03  0.000000E+00 -2.307294E-02  0.000000E+00  0.000000E+00  1.834153E+00  0.000000E+00 -5.898085E-03  0.000000E+00  0.000000E+00  1.212389E-02           1 
 1.350000E+01  5.000000E-01  5.000000E-01  2.929581E+00  2.889316E-05  1.282732E-03  7.108000E-05  2.527627E-04  3.102675E-05  2.100000E-01  1.500000E-01  3.134149E-21  1.523557E-32 -1.999997E-31  3.039357E-24  6.359689E-03  1.427653E-04  5.004645E-04  4.288891E-13  3.646916E-10  3.101034E-07  1.782737E-11  1.782737E-11  9.390597E-07  6.216296E-03  5.859535E-03  0.000000E+00 -2.291488E-02  0.000000E+00  0.000000E+00  1.951779E+00  0.000000E+00 -5.862034E-03  0.000000E+00  0.000000E+00  1.207708E-02           1 
 1.450000E+01  5.000000E-01  5.000000E-01  2.929331E+00  2.888187E-05  1.284126E-03  7.107665E-05  2.527363E-04  2.766972E-05  2.100000E-01  1.500000E-01  1.639248E-21  1.523293E-32 -1.999997E-31  1.868951E-24  6.359730E-03  1.632400E-04  5.678527E-04  3.738620E-13  3.177186E-10  2.700063E-07  1.551333E-11  1.551333E-11  9.348925E-07  6.195825E-03  5.792147E-03  0.000000E+00 -2.262651E-02  0.000000E+00  0.000000E+00  2.172649E+00  0.000000E+00 -5.794558E-03  0.000000E+00  0.000000E+00  1.198918E-02           1 
 1.550000E+01  5.000000E-01  5.000000E-01  2.929051E+00  2.886437E-05  1.286240E-03  7.143092E-05  2.526954E-04  2.350760E-05  2.100000E-01  1.500000E-01  6.666938E-22  1.522884E-32 -1.999997E-31  7.601158E-25  6.359778E-03  1.974092E-04  6.778462E-04  3.074485E-13  2.611102E-10  2.217559E-07  1.273288E-11  1.273288E-11  9.285400E-07  6.161662E-03  5.682154E-03  0.000000E+00 -2.216010E-02  0.000000E+00  0.000000E+00  2.526566E+00  0.000000E+00 -5.684455E-03  0.000000E+00  0.000000E+00  1.184497E-02           1 
 1.650000E+01  5.000000E-01  5.000000E-01  2.928752E+00  2.883839E-05  1.289665E-03  7.274059E-05  2.526344E-04  1.881491E-05  2.100000E-01  1.500000E-01  0.000000E+00  1.522275E-32 -1.999997E-31  0.000000E+00  6.359831E-03  2.559854E-04  8.596191E-04  2.348446E-13  1.993115E-10  1.691546E-07  9.705893E-12  9.705893E-12  9.184456E-07  6.103096E-03  5.500381E-03  0.000000E+00 -2.139403E-02  0.000000E+00  0.000000E+00  3.092657E+00  0.000000E+00 -5.502556E-03  0.000000E+00  0.000000E+00  1.160456E-02           1 
 1.750000E+01  5.000000E-01  5.000000E-01  2.928716E+00  2.880084E-05  1.290999E-03  7.123707E-05  2.525466E-04  8.326044E-06  2.100000E-01  1.500000E-01  0.000000E+00  1.521399E-32 -1.999997E-31  0.000000E+00  6.359929E-03  5.812012E-04  1.733986E-03  9.792600E-14  8.310241E-11  7.052276E-08  4.046177E-12  4.046177E-12  8.693677E-07  5.777929E-03  4.626014E-03  0.000000E+00 -1.797474E-02  0.000000E+00  0.000000E+00  6.266190E+00  0.000000E+00 -4.627894E-03  0.000000E+00  0.000000E+00  1.040488E-02           1 
 1.850000E+01  5.000000E-01  5.000000E-01  2.929388E+00  2.874849E-05  1.290477E-03  7.080892E-05  2.524244E-04  1.870770E-06  2.100000E-01  1.500000E-01  0.000000E+00  1.520179E-32 -1.999997E-31  0.000000E+00  6.359985E-03  2.025349E-03  4.037724E-03  2.107875E-14  1.791567E-11  1.522725E-08  8.750036E-13  8.750036E-13  6.541318E-07  4.333997E-03  2.322276E-03  0.000000E+00 -9.028569E-03  0.000000E+00  0.000000E+00  1.784265E+01  0.000000E+00 -2.323614E-03  0.000000E+00  0.000000E+00  6.656942E-03           1 
 1.950000E+01  5.000000E-01  5.000000E-01  2.930482E+00  2.867785E-05  1.287593E-03  7.062721E-05  2.522594E-04  2.753629E-07  2.100000E-01  1.500000E-01  0.000000E+00  1.518531E-32 -1.999997E-31  0.000000E+00  6.359998E-03  4.848551E-03  5.867244E-03  3.070243E-15  2.616102E-12  2.229137E-09  1.284158E-13  1.284158E-13  2.292407E-07  1.511220E-03  4.927560E-04  0.000000E+00 -1.920729E-03  0.000000E+00  0.000000E+00  3.649575E+01  0.000000E+00 -4.932189E-04  0.000000E+00  0.000000E+00  2.004208E-03           1 
 2.050000E+01  5.000000E-01  5.000000E-01  2.931877E+00  2.858491E-05  1.283377E-03  7.039318E-05  2.520423E-04  2.982212E-08  2.100000E-01  1.500000E-01  0.000000E+00  1.516364E-32 -1.999997E-31  0.000000E+00  6.360000E-03  6.152357E-03  6.302509E-03  3.324037E-16  2.841470E-13  2.428959E-10  1.403774E-14  1.403774E-14  3.169601E-08  2.076110E-04  5.749094E-05  0.000000E+00 -2.248704E-04  0.000000E+00  0.000000E+00  4.457914E+01  0.000000E+00 -5.755482E-05  0.000000E+00  0.000000E+00  2.651339E-04           1 
 2.150000E+01  5.000000E-01  5.000000E-01  2.933657E+00  2.846560E-05  1.277940E-03  7.009827E-05  2.517637E-04  3.807703E-09  2.100000E-01  1.500000E-01  0.000000E+00  1.513583E-32 -1.999997E-31  0.000000E+00  6.360000E-03  6.332666E-03  6.352559E-03  4.251156E-17  3.648919E-14  3.131998E-11  1.817517E-15  1.817517E-15  4.206790E-09  2.732980E-05  7.441419E-06  0.000000E+00 -2.923107E-05  0.000000E+00  0.000000E+00  4.579466E+01  0.000000E+00 -7.449896E-06  0.000000E+00  0.000000E+00  3.477546E-05           1 
 2.250000E+01  5.000000E-01  5.000000E-01  2.935895E+00  2.831586E-05  1.271137E-03  6.973054E-05  2.514144E-04  6.256929E-10  2.100000E-01  1.500000E-01  0.000000E+00  1.510095E-32 -1.999997E-31  0.000000E+00  6.360000E-03  6.355482E-03  6.358767E-03  7.001468E-18  6.040657E-15  5.211699E-12  3.040006E-16  3.040006E-16  7.025394E-10  4.517316E-06  1.233105E-06  0.000000E+00 -4.869796E-06  0.000000E+00  0.000000E+00  4.608896E+01  0.000000E+00 -1.234520E-06  0.000000E+00  0.000000E+00  5.751128E-06           1 
 2.350000E+01  5.000000E-01  5.000000E-01  2.938659E+00  2.813177E-05  1.262794E-03  6.927931E-05  2.509853E-04  5.755347E-11  2.100000E-01  1.500000E-01  0.000000E+00  1.505811E-32 -1.999997E-31  0.000000E+00  6.360000E-03  6.359583E-03  6.359886E-03  6.458287E-19  5.607591E-16  4.868950E-13  2.858211E-17  2.858211E-17  6.567602E-11  4.169547E-07  1.144903E-07  0.000000E+00 -4.551376E-07  0.000000E+00  0.000000E+00  4.630692E+01  0.000000E+00 -1.146226E-07  0.000000E+00  0.000000E+00  5.315111E-07           1 
 2.450000E+01  5.000000E-01  5.000000E-01  2.942015E+00  2.790976E-05  1.252748E-03  6.873619E-05  2.504681E-04  8.390666E-12  2.100000E-01  1.500000E-01  0.000000E+00  1.500648E-32 -1.999996E-31  0.000000E+00  6.360000E-03  6.359939E-03  6.359983E-03  9.447366E-20  8.266582E-17  7.233378E-14  4.279139E-18  4.279139E-18  9.757465E-12  6.099674E-08  1.687815E-08  0.000000E+00 -6.763505E-08  0.000000E+00  0.000000E+00  4.654369E+01  0.000000E+00 -1.689781E-08  0.000000E+00  0.000000E+00  7.788471E-08           1 
 2.550000E+01  5.000000E-01  5.000000E-01  2.946027E+00  2.764669E-05  1.240856E-03  6.809338E-05  2.498559E-04  5.055409E-13  2.100000E-01  1.500000E-01  0.000000E+00  1.494535E-32 -1.999996E-31  0.000000E+00  6.360000E-03  6.359996E-03  6.359999E-03  5.714938E-21  5.047064E-18  4.457241E-15  2.661298E-19  2.661298E-19  6.012649E-13  3.689872E-09  1.030478E-09  0.000000E+00 -4.169008E-09  0.000000E+00  0.000000E+00  4.682509E+01  0.000000E+00 -1.031690E-09  0.000000E+00  0.000000E+00  4.720956E-09           1 
 2.650000E+01  5.000000E-01  5.000000E-01  2.950755E+00  2.734004E-05  1.227003E-03  6.734458E-05  2.491426E-04  1.626337E-13  2.100000E-01  1.500000E-01  0.000000E+00  1.487414E-32 -1.999996E-31  0.000000E+00  6.360000E-03  6.359999E-03  6.360000E-03  1.847138E-21  1.649127E-18  1.472344E-15  8.887184E-20  8.887184E-20  1.986137E-13  1.192612E-09  3.367086E-10  0.000000E+00 -1.377621E-09  0.000000E+00  0.000000E+00  4.715741E+01  0.000000E+00 -3.371088E-10  0.000000E+00  0.000000E+00  1.529521E-09           1 
 2.750000E+01  5.000000E-01  5.000000E-01  2.956253E+00  2.698797E-05  1.211103E-03  6.648512E-05  2.483243E-04  3.995268E-14  2.100000E-01  1.500000E-01  0.000000E+00  1.479244E-32 -1.999996E-31  0.000000E+00  6.360000E-03  6.360000E-03  6.360000E-03  4.562239E-22  4.125064E-19  3.729782E-16  2.280007E-20  2.280007E-20  5.031338E-14  2.945629E-10  8.422301E-11  0.000000E+00 -3.491219E-10  0.000000E+00  0.000000E+00  4.754567E+01  0.000000E+00 -8.432438E-11  0.000000E+00  0.000000E+00  3.788366E-10           1 
 2.850000E+01  5.000000E-01  5.000000E-01  2.962569E+00  2.658941E-05  1.193107E-03  6.551219E-05  2.473984E-04  1.887855E-14  2.100000E-01  1.500000E-01  0.000000E+00  1.470000E-32 -1.999996E-31  0.000000E+00  6.360000E-03  6.360000E-03  6.360000E-03  2.169039E-22  1.989925E-19  1.825602E-16  1.132337E-20  1.132337E-20  2.462670E-14  1.400449E-10  4.062906E-11  0.000000E+00 -1.709592E-10  0.000000E+00  0.000000E+00  4.799452E+01  0.000000E+00 -4.067868E-11  0.000000E+00  0.000000E+00  1.806988E-10           1 
 2.950000E+01  5.000000E-01  5.000000E-01  2.969748E+00  2.614411E-05  1.173000E-03  6.442484E-05  2.463644E-04  1.443108E-14  2.100000E-01  1.500000E-01  0.000000E+00  1.459676E-32 -1.999996E-31  0.000000E+00  6.360000E-03  6.360000E-03  6.360000E-03  1.669542E-22  1.557202E-19  1.452421E-16  9.158837E-21  9.158837E-21  1.959263E-14  1.077947E-10  3.179399E-11  0.000000E+00 -1.360790E-10  0.000000E+00  0.000000E+00  4.850850E+01  0.000000E+00 -3.183346E-11  0.000000E+00  0.000000E+00  1.396084E-10           1 
 3.050000E+01  5.000000E-01  5.000000E-01  2.977824E+00  2.565260E-05  1.150802E-03  6.322409E-05  2.452233E-04  5.410782E-14  2.100000E-01  1.500000E-01  0.000000E+00  1.448284E-32 -1.999995E-31  0.000000E+00  6.360000E-03  6.360000E-03  6.360000E-03  6.308083E-22  5.994061E-19  5.695671E-16  3.659053E-20  3.659053E-20  7.683248E-14  4.072840E-10  1.223830E-10  0.000000E+00 -5.339181E-10  0.000000E+00  0.000000E+00  4.909207E+01  0.000000E+00 -1.225378E-10  0.000000E+00  0.000000E+00  5.297444E-10           1 
 3.150000E+01  5.000000E-01  5.000000E-01  2.986828E+00  2.511626E-05  1.126569E-03  6.191287E-05  2.439783E-04  2.848960E-14  2.100000E-01  1.500000E-01  0.000000E+00  1.435854E-32 -1.999995E-31  0.000000E+00  6.360000E-03  6.360000E-03  6.360000E-03  3.349677E-22  3.249606E-19  3.152525E-16  2.067695E-20  2.067695E-20  4.252639E-14  2.162733E-10  6.634845E-11  0.000000E+00 -2.956912E-10  0.000000E+00  0.000000E+00  4.974965E+01  0.000000E+00 -6.643413E-11  0.000000E+00  0.000000E+00  2.826646E-10           1 
 3.250000E+01  5.000000E-01  5.000000E-01  2.996784E+00  2.453723E-05  1.100391E-03  6.049588E-05  2.426341E-04  1.553658E-14  2.100000E-01  1.500000E-01  0.000000E+00  1.422433E-32 -1.999994E-31  0.000000E+00  6.360000E-03  6.360000E-03  6.360000E-03  1.843695E-22  1.830092E-19  1.816590E-16  1.219104E-20  1.219104E-20  2.450512E-14  1.190390E-10  3.736569E-11  0.000000E+00 -1.704922E-10  0.000000E+00  0.000000E+00  5.048563E+01  0.000000E+00 -3.741506E-11  0.000000E+00  0.000000E+00  1.564293E-10           1 
 3.350000E+01  5.000000E-01  5.000000E-01  3.007710E+00  2.391836E-05  1.072383E-03  5.897947E-05  2.411968E-04  1.270282E-14  2.100000E-01  1.500000E-01  0.000000E+00  1.408083E-32 -1.999994E-31  0.000000E+00  6.360000E-03  6.360000E-03  6.360000E-03  1.522588E-22  1.549861E-19  1.577622E-16  1.085708E-20  1.085708E-20  2.128153E-14  9.830654E-11  3.164409E-11  0.000000E+00 -1.481616E-10  0.000000E+00  0.000000E+00  5.130442E+01  0.000000E+00 -3.168697E-11  0.000000E+00  0.000000E+00  1.299721E-10           1 
 3.450000E+01  5.000000E-01  5.000000E-01  3.019620E+00  2.326314E-05  1.042691E-03  5.737143E-05  2.396739E-04  1.891563E-14  2.100000E-01  1.500000E-01  0.000000E+00  1.392879E-32 -1.999993E-31  0.000000E+00  6.360000E-03  6.360000E-03  6.360000E-03  2.291778E-22  2.397686E-19  2.508488E-16  1.774319E-20  1.774319E-20  3.383857E-14  1.479696E-10  4.895446E-11  0.000000E+00 -2.357469E-10  0.000000E+00  0.000000E+00  5.221053E+01  0.000000E+00 -4.902264E-11  0.000000E+00  0.000000E+00  1.969581E-10           1 
 3.550000E+01  5.000000E-01  5.000000E-01  3.032520E+00  2.257562E-05  1.011480E-03  5.568076E-05  2.380743E-04  1.756520E-14  2.100000E-01  1.500000E-01  0.000000E+00  1.376909E-32 -1.999992E-31  0.000000E+00  6.360000E-03  6.360000E-03  6.360000E-03  2.152688E-22  2.320072E-19  2.500472E-16  1.821975E-20  1.821975E-20  3.373043E-14  1.389892E-10  4.736979E-11  0.000000E+00 -2.351646E-10  0.000000E+00  0.000000E+00  5.320856E+01  0.000000E+00 -4.743775E-11  0.000000E+00  0.000000E+00  1.863930E-10           1 
 3.650000E+01  5.000000E-01  5.000000E-01  3.046415E+00  2.186022E-05  9.789331E-04  5.391743E-05  2.364073E-04  1.569339E-14  2.100000E-01  1.500000E-01  0.000000E+00  1.360266E-32 -1.999991E-31  0.000000E+00  6.360000E-03  6.360000E-03  6.360000E-03  1.946753E-22  2.166338E-19  2.410691E-16  1.813664E-20  1.813664E-20  3.251933E-14  1.256929E-10  4.423095E-11  0.000000E+00 -2.268930E-10  0.000000E+00  0.000000E+00  5.430332E+01  0.000000E+00 -4.429647E-11  0.000000E+00  0.000000E+00  1.699567E-10           1 
 3.750000E+01  5.000000E-01  5.000000E-01  3.061303E+00  2.112160E-05  9.452473E-04  5.209213E-05  2.346832E-04  1.491570E-14  2.100000E-01  1.500000E-01  0.000000E+00  1.343053E-32 -1.999990E-31  0.000000E+00  6.360000E-03  6.360000E-03  6.360000E-03  1.874016E-22  2.158126E-19  2.485308E-16  1.935012E-20  1.935012E-20  3.352588E-14  1.209966E-10  4.406327E-11  0.000000E+00 -2.341001E-10  0.000000E+00  0.000000E+00  5.549984E+01  0.000000E+00 -4.413082E-11  0.000000E+00  0.000000E+00  1.650937E-10           1 
 3.850000E+01  5.000000E-01  5.000000E-01  3.077180E+00  2.036446E-05  9.106282E-04  5.021601E-05  2.329127E-04  1.509019E-14  2.100000E-01  1.500000E-01  0.000000E+00  1.325376E-32 -1.999988E-31  0.000000E+00  6.360000E-03  6.360000E-03  6.360000E-03  1.921349E-22  2.295018E-19  2.741359E-16  2.213838E-20  2.213838E-20  3.697992E-14  1.240527E-10  4.685825E-11  0.000000E+00 -2.584283E-10  0.000000E+00  0.000000E+00  5.680346E+01  0.000000E+00 -4.693276E-11  0.000000E+00  0.000000E+00  1.709482E-10           1 
 3.950000E+01  5.000000E-01  5.000000E-01  3.094036E+00  1.959346E-05  8.752864E-04  4.830045E-05  2.311064E-04  1.549649E-14  2.100000E-01  1.500000E-01  0.000000E+00  1.307342E-32 -1.999987E-31  0.000000E+00  6.360000E-03  6.360000E-03  6.360000E-03  2.000543E-22  2.484184E-19  3.084747E-16  2.589735E-20  2.589735E-20  4.161209E-14  1.291659E-10  5.072053E-11  0.000000E+00 -2.910422E-10  0.000000E+00  0.000000E+00  5.821989E+01  0.000000E+00 -5.080437E-11  0.000000E+00  0.000000E+00  1.799284E-10           1 
 4.050000E+01  5.000000E-01  5.000000E-01  3.111860E+00  1.881309E-05  8.394329E-04  4.635685E-05  2.292752E-04  1.813833E-14  2.100000E-01  1.500000E-01  0.000000E+00  1.289059E-32 -1.999984E-31  0.000000E+00  6.360000E-03  6.360000E-03  6.360000E-03  2.375251E-22  3.073046E-19  3.975837E-16  3.477668E-20  3.477668E-20  5.363257E-14  1.533591E-10  6.274355E-11  0.000000E+00 -3.754356E-10  0.000000E+00  0.000000E+00  5.975529E+01  0.000000E+00 -6.285161E-11  0.000000E+00  0.000000E+00  2.161567E-10           1 
 4.150000E+01  5.000000E-01  5.000000E-01  3.130637E+00  1.802780E-05  8.032747E-04  4.439640E-05  2.274296E-04  1.161732E-14  2.100000E-01  1.500000E-01  0.000000E+00  1.270633E-32 -1.999982E-31  0.000000E+00  6.360000E-03  6.360000E-03  6.360000E-03  1.543764E-22  2.085537E-19  2.817441E-16  2.573308E-20  2.573308E-20  3.800624E-14  9.967380E-11  4.258120E-11  0.000000E+00 -2.662804E-10  0.000000E+00  0.000000E+00  6.141629E+01  0.000000E+00 -4.265778E-11  0.000000E+00  0.000000E+00  1.422933E-10           1 
 4.250000E+01  5.000000E-01  5.000000E-01  3.150352E+00  1.724192E-05  7.670118E-04  4.242996E-05  2.255799E-04  9.647901E-15  2.100000E-01  1.500000E-01  0.000000E+00  1.252166E-32 -1.999978E-31  0.000000E+00  6.360000E-03  6.360000E-03  6.360000E-03  1.301386E-22  1.839747E-19  2.600820E-16  2.485778E-20  2.485778E-20  3.508410E-14  8.402452E-11  3.756282E-11  0.000000E+00 -2.460241E-10  0.000000E+00  0.000000E+00  6.321014E+01  0.000000E+00 -3.763351E-11  0.000000E+00  0.000000E+00  1.216227E-10           1 
 4.350000E+01  5.000000E-01  5.000000E-01  3.170987E+00  1.645944E-05  7.308346E-04  4.046786E-05  2.237357E-04  9.894949E-15  2.100000E-01  1.500000E-01  0.000000E+00  1.233754E-32 -1.999974E-31  0.000000E+00  6.360000E-03  6.360000E-03  6.360000E-03  1.355155E-22  2.008982E-19  2.978265E-16  2.985043E-20  2.985043E-20  4.017569E-14  8.749613E-11  4.101815E-11  0.000000E+00 -2.819799E-10  0.000000E+00  0.000000E+00  6.514478E+01  0.000000E+00 -4.109910E-11  0.000000E+00  0.000000E+00  1.285548E-10           1 
 4.450000E+01  5.000000E-01  5.000000E-01  3.192523E+00  1.568395E-05  6.949221E-04  3.851979E-05  2.219062E-04  1.810285E-14  2.100000E-01  1.500000E-01  0.000000E+00  1.215488E-32 -1.999968E-31  0.000000E+00  6.360000E-03  6.360000E-03  6.360000E-03  2.517657E-22  3.922106E-19  6.110014E-16  6.435245E-20  6.435245E-20  8.242182E-14  1.625536E-10  8.007913E-11  0.000000E+00 -5.790126E-10  0.000000E+00  0.000000E+00  6.722889E+01  0.000000E+00 -8.024520E-11  0.000000E+00  0.000000E+00  2.427157E-10           1 
 4.550000E+01  5.000000E-01  5.000000E-01  3.214939E+00  1.491892E-05  6.594383E-04  3.659476E-05  2.200997E-04  5.282104E-14  2.100000E-01  1.500000E-01  0.000000E+00  1.197452E-32 -1.999961E-31  0.000000E+00  6.360000E-03  6.360000E-03  6.360000E-03  7.460539E-22  1.223797E-18  2.007469E-15  2.226322E-19  2.226322E-19  2.708001E-13  4.816928E-10  2.498673E-10  0.000000E+00 -1.904091E-09  0.000000E+00  0.000000E+00  6.947204E+01  0.000000E+00 -2.504130E-10  0.000000E+00  0.000000E+00  7.318330E-10           1 
 4.650000E+01  5.000000E-01  5.000000E-01  3.238216E+00  1.416747E-05  6.245322E-04  3.470095E-05  2.183238E-04  4.988481E-14  2.100000E-01  1.500000E-01  0.000000E+00  1.179722E-32 -1.999952E-31  0.000000E+00  6.360000E-03  6.360000E-03  6.360000E-03  7.155698E-22  1.238421E-18  2.143308E-15  2.507847E-19  2.507847E-19  2.891243E-13  4.620107E-10  2.528531E-10  0.000000E+00 -2.034782E-09  0.000000E+00  0.000000E+00  7.188478E+01  0.000000E+00 -2.534357E-10  0.000000E+00  0.000000E+00  7.151550E-10           1 
 4.750000E+01  5.000000E-01  5.000000E-01  3.262333E+00  1.343247E-05  5.903378E-04  3.284572E-05  2.165854E-04  1.600950E-14  2.100000E-01  1.500000E-01  0.000000E+00  1.162366E-32 -1.999940E-31  0.000000E+00  6.360000E-03  6.360000E-03  6.360000E-03  2.332148E-22  4.266668E-19  7.805876E-16  9.655048E-20  9.655048E-20  1.052984E-13  1.505761E-10  8.711418E-11  0.000000E+00 -7.417365E-10  0.000000E+00  0.000000E+00  7.447874E+01  0.000000E+00 -8.732633E-11  0.000000E+00  0.000000E+00  2.377963E-10           1 
 4.850000E+01  5.000000E-01  5.000000E-01  3.287267E+00  1.271662E-05  5.569734E-04  3.103558E-05  2.148904E-04  8.573239E-15  2.100000E-01  1.500000E-01  0.000000E+00  1.145443E-32 -1.999924E-31  0.000000E+00  6.360000E-03  6.360000E-03  6.360000E-03  1.268117E-22  2.457120E-19  4.760950E-16  6.236785E-20  6.236785E-20  6.422344E-14  8.187650E-11  5.016796E-11  0.000000E+00 -4.528097E-10  0.000000E+00  0.000000E+00  7.726681E+01  0.000000E+00 -5.029736E-11  0.000000E+00  0.000000E+00  1.321092E-10           1 
 4.950000E+01  5.000000E-01  5.000000E-01  3.312991E+00  1.202249E-05  5.245484E-04  2.927612E-05  2.132440E-04  7.423662E-15  2.100000E-01  1.500000E-01  0.000000E+00  1.129005E-32 -1.999905E-31  0.000000E+00  6.360000E-03  6.360000E-03  6.360000E-03  1.114758E-22  2.291775E-19  4.711546E-16  6.548697E-20  6.548697E-20  6.355701E-14  7.197481E-11  4.679204E-11  0.000000E+00 -4.485164E-10  0.000000E+00  0.000000E+00  8.026315E+01  0.000000E+00 -4.692010E-11  0.000000E+00  0.000000E+00  1.188309E-10           1 
 5.050000E+01  5.000000E-01  5.000000E-01  3.339476E+00  1.135155E-05  4.931556E-04  2.757210E-05  2.116505E-04  7.070450E-15  2.100000E-01  1.500000E-01  0.000000E+00  1.113096E-32 -1.999878E-31  0.000000E+00  6.360000E-03  6.360000E-03  6.360000E-03  1.077561E-22  2.354604E-19  5.145103E-16  7.600992E-20  7.600992E-20  6.940554E-14  6.957316E-11  4.807485E-11  0.000000E+00 -4.902306E-10  0.000000E+00  0.000000E+00  8.348349E+01  0.000000E+00 -4.821469E-11  0.000000E+00  0.000000E+00  1.177179E-10           1 
 5.150000E+01  5.000000E-01  5.000000E-01  3.366704E+00  1.070606E-05  4.628584E-04  2.592746E-05  2.101135E-04  7.320793E-15  2.100000E-01  1.500000E-01  0.000000E+00  1.097752E-32 -1.999844E-31  0.000000E+00  6.360000E-03  6.360000E-03  6.360000E-03  1.131980E-22  2.633557E-19  6.126982E-16  9.637193E-20  9.637193E-20  8.265071E-14  7.308676E-11  5.377032E-11  0.000000E+00 -5.843088E-10  0.000000E+00  0.000000E+00  8.694539E+01  0.000000E+00 -5.393685E-11  0.000000E+00  0.000000E+00  1.269403E-10           1 
 5.250000E+01  5.000000E-01  5.000000E-01  3.394653E+00  1.008683E-05  4.337113E-04  2.434531E-05  2.086359E-04  1.391886E-14  2.100000E-01  1.500000E-01  0.000000E+00  1.082999E-32 -1.999798E-31  0.000000E+00  6.360000E-03  6.360000E-03  6.360000E-03  2.182707E-22  5.415622E-19  1.343697E-15  2.254002E-19  2.254002E-19  1.812597E-13  1.409274E-10  1.105728E-10  0.000000E+00 -1.282581E-09  0.000000E+00  0.000000E+00  9.066817E+01  0.000000E+00 -1.109380E-10  0.000000E+00  0.000000E+00  2.516828E-10           1 
 5.350000E+01  5.000000E-01  5.000000E-01  3.423304E+00  9.493958E-06  4.057533E-04  2.282799E-05  2.072196E-04  1.637437E-14  2.100000E-01  1.500000E-01  0.000000E+00  1.068859E-32 -1.999736E-31  0.000000E+00  6.360000E-03  6.360000E-03  6.360000E-03  2.602943E-22  6.898716E-19  1.828403E-15  3.276237E-19  3.276237E-19  2.466447E-13  1.680601E-10  1.408537E-10  0.000000E+00 -1.746790E-09  0.000000E+00  0.000000E+00  9.467321E+01  0.000000E+00 -1.413507E-10  0.000000E+00  0.000000E+00  3.091623E-10           1 
 5.450000E+01  5.000000E-01  5.000000E-01  3.452637E+00  8.927247E-06  3.790111E-04  2.137711E-05  2.058662E-04  1.432206E-14  2.100000E-01  1.500000E-01  0.000000E+00  1.055347E-32 -1.999653E-31  0.000000E+00  6.360000E-03  6.360000E-03  6.360000E-03  2.306666E-22  6.540662E-19  1.854636E-15  3.555459E-19  3.555459E-19  2.501835E-13  1.489309E-10  1.335432E-10  0.000000E+00 -1.773418E-09  0.000000E+00  0.000000E+00  9.898412E+01  0.000000E+00 -1.340473E-10  0.000000E+00  0.000000E+00  2.827261E-10           1 
 5.550000E+01  5.000000E-01  5.000000E-01  3.482633E+00  8.386309E-06  3.535012E-04  1.999364E-05  2.045765E-04  1.261562E-14  2.100000E-01  1.500000E-01  0.000000E+00  1.042470E-32 -1.999540E-31  0.000000E+00  6.360000E-03  6.360000E-03  6.360000E-03  2.057369E-22  6.250946E-19  1.899237E-15  3.901329E-19  3.901329E-19  2.562000E-13  1.328349E-10  1.276279E-10  0.000000E+00 -1.817661E-09  0.000000E+00  0.000000E+00  1.036268E+02  0.000000E+00 -1.281441E-10  0.000000E+00  0.000000E+00  2.607210E-10           1 