# Units: Mol/m^3 porous medium
 TITLE = " Years"
VARIABLES = "X (meters)", "Na+       ", "Ca++      ", "Mg++      ", "Cl-       ", "
 ZONE F=POINT,I=         100
 5.00000E-01               1.14822E+02   1.41614E+02   1.75975E+02   0.00000E+00
 1.50000E+00               1.55790E+02   1.43194E+02   1.53911E+02   0.00000E+00
 2.50000E+00               1.60137E+02   1.41761E+02   1.53171E+02   0.00000E+00
 3.50000E+00               1.60354E+02   1.41688E+02   1.53135E+02   0.00000E+00
 4.50000E+00               1.60385E+02   1.41678E+02   1.53129E+02   0.00000E+00
 5.50000E+00               1.60410E+02   1.41670E+02   1.53125E+02   0.00000E+00
 6.50000E+00               1.60434E+02   1.41663E+02   1.53120E+02   0.00000E+00
 7.50000E+00               1.60437E+02   1.41662E+02   1.53120E+02   0.00000E+00
 8.50000E+00               1.60437E+02   1.41662E+02   1.53120E+02   0.00000E+00
 9.50000E+00               1.60450E+02   1.41658E+02   1.53117E+02   0.00000E+00
 1.05000E+01               1.60462E+02   1.41654E+02   1.53115E+02   0.00000E+00
 1.15000E+01               1.60470E+02   1.41652E+02   1.53113E+02   0.00000E+00
 1.25000E+01               1.60475E+02   1.41650E+02   1.53112E+02   0.00000E+00
 1.35000E+01               1.60480E+02   1.41649E+02   1.53111E+02   0.00000E+00
 1.45000E+01               1.60484E+02   1.41647E+02   1.53111E+02   0.00000E+00
 1.55000E+01               1.60489E+02   1.41646E+02   1.53110E+02   0.00000E+00
 1.65000E+01               1.60490E+02   1.41645E+02   1.53110E+02   0.00000E+00
 1.75000E+01               1.60483E+02   1.41648E+02   1.53111E+02   0.00000E+00
 1.85000E+01               1.60505E+02   1.41641E+02   1.53107E+02   0.00000E+00
 1.95000E+01               1.60495E+02   1.41644E+02   1.53108E+02   0.00000E+00
 2.05000E+01               1.60493E+02   1.41645E+02   1.53109E+02   0.00000E+00
 2.15000E+01               1.60502E+02   1.41642E+02   1.53107E+02   0.00000E+00
 2.25000E+01               1.60506E+02   1.41641E+02   1.53107E+02   0.00000E+00
 2.35000E+01               1.60512E+02   1.41639E+02   1.53105E+02   0.00000E+00
 2.45000E+01               1.60511E+02   1.41639E+02   1.53106E+02   0.00000E+00
 2.55000E+01               1.60511E+02   1.41639E+02   1.53105E+02   0.00000E+00
 2.65000E+01               1.60510E+02   1.41639E+02   1.53106E+02   0.00000E+00
 2.75000E+01               1.60515E+02   1.41638E+02   1.53105E+02   0.00000E+00
 2.85000E+01               1.60516E+02   1.41637E+02   1.53105E+02   0.00000E+00
 2.95000E+01               1.60513E+02   1.41638E+02   1.53105E+02   0.00000E+00
 3.05000E+01               1.60516E+02   1.41637E+02   1.53105E+02   0.00000E+00
 3.15000E+01               1.60518E+02   1.41637E+02   1.53104E+02   0.00000E+00
 3.25000E+01               1.60520E+02   1.41636E+02   1.53104E+02   0.00000E+00
 3.35000E+01               1.60521E+02   1.41636E+02   1.53104E+02   0.00000E+00
 3.45000E+01               1.60522E+02   1.41635E+02   1.53103E+02   0.00000E+00
 3.55000E+01               1.60523E+02   1.41635E+02   1.53103E+02   0.00000E+00
 3.65000E+01               1.60518E+02   1.41637E+02   1.53104E+02   0.00000E+00
 3.75000E+01               1.60534E+02   1.41632E+02   1.53101E+02   0.00000E+00
 3.85000E+01               1.60525E+02   1.41635E+02   1.53103E+02   0.00000E+00
 3.95000E+01               1.60523E+02   1.41635E+02   1.53103E+02   0.00000E+00
 4.05000E+01               1.60525E+02   1.41635E+02   1.53103E+02   0.00000E+00
 4.15000E+01               1.60527E+02   1.41634E+02   1.53102E+02   0.00000E+00
 4.25000E+01               1.60529E+02   1.41633E+02   1.53102E+02   0.00000E+00
 4.35000E+01               1.60529E+02   1.41633E+02   1.53102E+02   0.00000E+00
 4.45000E+01               1.60531E+02   1.41633E+02   1.53102E+02   0.00000E+00
 4.55000E+01               1.60531E+02   1.41633E+02   1.53102E+02   0.00000E+00
 4.65000E+01               1.60528E+02   1.41634E+02   1.53102E+02   0.00000E+00
 4.75000E+01               1.60526E+02   1.41634E+02   1.53103E+02   0.00000E+00
 4.85000E+01               1.60538E+02   1.41630E+02   1.53100E+02   0.00000E+00
 4.95000E+01               1.60559E+02   1.41624E+02   1.53096E+02   0.00000E+00
 5.05000E+01               1.60577E+02   1.41618E+02   1.53093E+02   0.00000E+00
 5.15000E+01               1.60587E+02   1.41615E+02   1.53091E+02   0.00000E+00
 5.25000E+01               1.60591E+02   1.41614E+02   1.53090E+02   0.00000E+00
 5.35000E+01               1.60590E+02   1.41614E+02   1.53091E+02   0.00000E+00
 5.45000E+01               1.60588E+02   1.41615E+02   1.53091E+02   0.00000E+00
 5.55000E+01               1.60588E+02   1.41615E+02   1.53091E+02   0.00000E+00
 5.65000E+01               1.60588E+02   1.41615E+02   1.53091E+02   0.00000E+00
 5.75000E+01               1.60588E+02   1.41615E+02   1.53091E+02   0.00000E+00
 5.85000E+01               1.60588E+02   1.41615E+02   1.53091E+02   0.00000E+00
 5.95000E+01               1.60588E+02   1.41615E+02   1.53091E+02   0.00000E+00
 6.05000E+01               1.60588E+02   1.41615E+02   1.53091E+02   0.00000E+00
 6.15000E+01               1.60588E+02   1.41615E+02   1.53091E+02   0.00000E+00
 6.25000E+01               1.60588E+02   1.41615E+02   1.53091E+02   0.00000E+00
 6.35000E+01               1.60588E+02   1.41615E+02   1.53091E+02   0.00000E+00
 6.45000E+01               1.60588E+02   1.41615E+02   1.53091E+02   0.00000E+00
 6.55000E+01               1.60588E+02   1.41615E+02   1.53091E+02   0.00000E+00
 6.65000E+01               1.60588E+02   1.41615E+02   1.53091E+02   0.00000E+00
 6.75000E+01               1.60588E+02   1.41615E+02   1.53091E+02   0.00000E+00
 6.85000E+01               1.60588E+02   1.41615E+02   1.53091E+02   0.00000E+00
 6.95000E+01               1.60588E+02   1.41615E+02   1.53091E+02   0.00000E+00
 7.05000E+01               1.60588E+02   1.41615E+02   1.53091E+02   0.00000E+00
 7.15000E+01               1.60588E+02   1.41615E+02   1.53091E+02   0.00000E+00
 7.25000E+01               1.60588E+02   1.41615E+02   1.53091E+02   0.00000E+00
 7.35000E+01               1.60588E+02   1.41615E+02   1.53091E+02   0.00000E+00
 7.45000E+01               1.60588E+02   1.41615E+02   1.53091E+02   0.00000E+00
 7.55000E+01               1.60588E+02   1.41615E+02   1.53091E+02   0.00000E+00
 7.65000E+01               1.60588E+02   1.41615E+02   1.53091E+02   0.00000E+00
 7.75000E+01               1.60588E+02   1.41615E+02   1.53091E+02   0.00000E+00
 7.85000E+01               1.60588E+02   1.41615E+02   1.53091E+02   0.00000E+00
 7.95000E+01               1.60588E+02   1.41615E+02   1.53091E+02   0.00000E+00
 8.05000E+01               1.60588E+02   1.41615E+02   1.53091E+02   0.00000E+00
 8.15000E+01               1.60588E+02   1.41615E+02   1.53091E+02   0.00000E+00
 8.25000E+01               1.60588E+02   1.41615E+02   1.53091E+02   0.00000E+00
 8.35000E+01               1.60588E+02   1.41615E+02   1.53091E+02   0.00000E+00
 8.45000E+01               1.60588E+02   1.41615E+02   1.53091E+02   0.00000E+00
 8.55000E+01               1.60588E+02   1.41615E+02   1.53091E+02   0.00000E+00
 8.65000E+01               1.60588E+02   1.41615E+02   1.53091E+02   0.00000E+00
 8.75000E+01               1.60588E+02   1.41615E+02   1.53091E+02   0.00000E+00
 8.85000E+01               1.60588E+02   1.41615E+02   1.53091E+02   0.00000E+00
 8.95000E+01               1.60588E+02   1.41615E+02   1.53091E+02   0.00000E+00
 9.05000E+01               1.60588E+02   1.41615E+02   1.53091E+02   0.00000E+00
 9.15000E+01               1.60588E+02   1.41615E+02   1.53091E+02   0.00000E+00
 9.25000E+01               1.60588E+02   1.41615E+02   1.53091E+02   0.00000E+00
 9.35000E+01               1.60588E+02   1.41615E+02   1.53091E+02   0.00000E+00
 9.45000E+01               1.60588E+02   1.41615E+02   1.53091E+02   0.00000E+00
 9.55000E+01               1.60588E+02   1.41615E+02   1.53091E+02   0.00000E+00
 9.65000E+01               1.60588E+02   1.41615E+02   1.53091E+02   0.00000E+00
 9.75000E+01               1.60588E+02   1.41615E+02   1.53091E+02   0.00000E+00
 9.85000E+01               1.60588E+02   1.41615E+02   1.53091E+02   0.00000E+00
 9.95000E+01               1.60588E+02   1.41615E+02   1.53091E+02   0.00000E+00
