# Units: Mol/kgw
 TITLE = " Years"
VARIABLES = "X (meters)", "H+        ", "HCO3-     ", "Ca++      ", "Tracer    ", "
 ZONE F=POINT,I=         100
 5.00000E-01               9.66443E-04   1.00000E-03   1.67795E-05   1.00000E-03
 1.50000E+00               9.66403E-04   1.00004E-03   1.68192E-05   1.00000E-03
 2.50000E+00               9.65466E-04   1.00098E-03   1.77611E-05   9.99999E-04
 3.50000E+00               9.44949E-04   1.02161E-03   3.83844E-05   9.99990E-04
 4.50000E+00               1.06125E-04   1.86247E-03   8.79332E-04   9.99916E-04
 5.50000E+00               5.36870E-05   1.91363E-03   9.27823E-04   9.99374E-04
 6.50000E+00               5.34168E-05   1.91245E-03   9.25260E-04   9.95958E-04
 7.50000E+00               5.24802E-05   1.90862E-03   9.14749E-04   9.77198E-04
 8.50000E+00               4.86709E-05   1.89238E-03   8.72685E-04   8.83617E-04
 9.50000E+00               4.05363E-05   1.85777E-03   7.82644E-04   6.49340E-04
 1.05000E+01               3.04175E-05   1.81547E-03   6.69713E-04   3.54077E-04
 1.15000E+01               2.19212E-05   1.78127E-03   5.75410E-04   1.18848E-04
 1.25000E+01               1.76387E-05   1.76550E-03   5.28446E-04   1.92322E-05
 1.35000E+01               1.67764E-05   1.76257E-03   5.19075E-04   2.18304E-06
 1.45000E+01               1.66715E-05   1.76222E-03   5.17931E-04   2.40083E-07
 1.55000E+01               1.66595E-05   1.76218E-03   5.17800E-04   2.47823E-08
 1.65000E+01               1.66582E-05   1.76218E-03   5.17786E-04   2.31664E-09
 1.75000E+01               1.66581E-05   1.76218E-03   5.17785E-04   1.53390E-10
 1.85000E+01               1.66581E-05   1.76218E-03   5.17785E-04   5.27886E-20
 1.95000E+01               1.66581E-05   1.76218E-03   5.17785E-04   8.91813E-21
 2.05000E+01               1.66581E-05   1.76218E-03   5.17785E-04   5.58617E-22
 2.15000E+01               1.66581E-05   1.76218E-03   5.17785E-04   4.17227E-23
 2.25000E+01               1.66581E-05   1.76218E-03   5.17785E-04   4.46294E-24
 2.35000E+01               1.66581E-05   1.76218E-03   5.17785E-04   2.14793E-25
 2.45000E+01               1.66581E-05   1.76218E-03   5.17785E-04   1.30694E-26
 2.55000E+01               1.66581E-05   1.76218E-03   5.17785E-04   1.27113E-27
 2.65000E+01               1.66581E-05   1.76218E-03   5.17785E-04   2.36600E-28
 2.75000E+01               1.66581E-05   1.76218E-03   5.17785E-04   3.43706E-29
 2.85000E+01               1.66581E-05   1.76218E-03   5.17785E-04   7.17335E-30
 2.95000E+01               1.66581E-05   1.76218E-03   5.17785E-04   2.26717E-30
 3.05000E+01               1.66581E-05   1.76218E-03   5.17785E-04   1.53702E-30
 3.15000E+01               1.66581E-05   1.76218E-03   5.17785E-04   1.18564E-30
 3.25000E+01               1.66581E-05   1.76218E-03   5.17785E-04   1.05530E-30
 3.35000E+01               1.66581E-05   1.76218E-03   5.17785E-04   1.01459E-30
 3.45000E+01               1.66581E-05   1.76218E-03   5.17785E-04   1.00342E-30
 3.55000E+01               1.66581E-05   1.76218E-03   5.17785E-04   1.00070E-30
 3.65000E+01               1.66581E-05   1.76218E-03   5.17785E-04   1.00013E-30
 3.75000E+01               1.66581E-05   1.76218E-03   5.17785E-04   1.00002E-30
 3.85000E+01               1.66581E-05   1.76218E-03   5.17785E-04   1.00000E-30
 3.95000E+01               1.66581E-05   1.76218E-03   5.17785E-04   1.00000E-30
 4.05000E+01               1.66581E-05   1.76218E-03   5.17785E-04   1.00000E-30
 4.15000E+01               1.66581E-05   1.76218E-03   5.17785E-04   1.00000E-30
 4.25000E+01               1.66581E-05   1.76218E-03   5.17785E-04   1.00000E-30
 4.35000E+01               1.66581E-05   1.76218E-03   5.17785E-04   1.00000E-30
 4.45000E+01               1.66581E-05   1.76218E-03   5.17785E-04   1.00000E-30
 4.55000E+01               1.66581E-05   1.76218E-03   5.17785E-04   1.00000E-30
 4.65000E+01               1.66581E-05   1.76218E-03   5.17785E-04   1.00000E-30
 4.75000E+01               1.66581E-05   1.76218E-03   5.17785E-04   1.00000E-30
 4.85000E+01               1.66581E-05   1.76218E-03   5.17785E-04   1.00000E-30
 4.95000E+01               1.66581E-05   1.76218E-03   5.17785E-04   1.00000E-30
 5.05000E+01               1.66581E-05   1.76218E-03   5.17785E-04   1.00000E-30
 5.15000E+01               1.66581E-05   1.76218E-03   5.17785E-04   1.00000E-30
 5.25000E+01               1.66581E-05   1.76218E-03   5.17785E-04   1.00000E-30
 5.35000E+01               1.66581E-05   1.76218E-03   5.17785E-04   1.00000E-30
 5.45000E+01               1.66581E-05   1.76218E-03   5.17785E-04   1.00000E-30
 5.55000E+01               1.66581E-05   1.76218E-03   5.17785E-04   1.00000E-30
 5.65000E+01               1.66581E-05   1.76218E-03   5.17785E-04   1.00000E-30
 5.75000E+01               1.66581E-05   1.76218E-03   5.17785E-04   1.00000E-30
 5.85000E+01               1.66581E-05   1.76218E-03   5.17785E-04   1.00000E-30
 5.95000E+01               1.66581E-05   1.76218E-03   5.17785E-04   1.00000E-30
 6.05000E+01               1.66581E-05   1.76218E-03   5.17785E-04   1.00000E-30
 6.15000E+01               1.66581E-05   1.76218E-03   5.17785E-04   1.00000E-30
 6.25000E+01               1.66581E-05   1.76218E-03   5.17785E-04   1.00000E-30
 6.35000E+01               1.66581E-05   1.76218E-03   5.17785E-04   1.00000E-30
 6.45000E+01               1.66581E-05   1.76218E-03   5.17785E-04   1.00000E-30
 6.55000E+01               1.66581E-05   1.76218E-03   5.17785E-04   1.00000E-30
 6.65000E+01               1.66581E-05   1.76218E-03   5.17785E-04   1.00000E-30
 6.75000E+01               1.66581E-05   1.76218E-03   5.17785E-04   1.00000E-30
 6.85000E+01               1.66581E-05   1.76218E-03   5.17785E-04   1.00000E-30
 6.95000E+01               1.66581E-05   1.76218E-03   5.17785E-04   1.00000E-30
 7.05000E+01               1.66581E-05   1.76218E-03   5.17785E-04   1.00000E-30
 7.15000E+01               1.66581E-05   1.76218E-03   5.17785E-04   1.00000E-30
 7.25000E+01               1.66581E-05   1.76218E-03   5.17785E-04   1.00000E-30
 7.35000E+01               1.66581E-05   1.76218E-03   5.17785E-04   1.00000E-30
 7.45000E+01               1.66581E-05   1.76218E-03   5.17785E-04   1.00000E-30
 7.55000E+01               1.66581E-05   1.76218E-03   5.17785E-04   1.00000E-30
 7.65000E+01               1.66581E-05   1.76218E-03   5.17785E-04   1.00000E-30
 7.75000E+01               1.66581E-05   1.76218E-03   5.17785E-04   1.00000E-30
 7.85000E+01               1.66581E-05   1.76218E-03   5.17785E-04   1.00000E-30
 7.95000E+01               1.66581E-05   1.76218E-03   5.17785E-04   1.00000E-30
 8.05000E+01               1.66581E-05   1.76218E-03   5.17785E-04   1.00000E-30
 8.15000E+01               1.66581E-05   1.76218E-03   5.17785E-04   1.00000E-30
 8.25000E+01               1.66581E-05   1.76218E-03   5.17785E-04   1.00000E-30
 8.35000E+01               1.66581E-05   1.76218E-03   5.17785E-04   1.00000E-30
 8.45000E+01               1.66581E-05   1.76218E-03   5.17785E-04   1.00000E-30
 8.55000E+01               1.66581E-05   1.76218E-03   5.17785E-04   1.00000E-30
 8.65000E+01               1.66581E-05   1.76218E-03   5.17785E-04   1.00000E-30
 8.75000E+01               1.66581E-05   1.76218E-03   5.17785E-04   1.00000E-30
 8.85000E+01               1.66581E-05   1.76218E-03   5.17785E-04   1.00000E-30
 8.95000E+01               1.66581E-05   1.76218E-03   5.17785E-04   1.00000E-30
 9.05000E+01               1.66581E-05   1.76218E-03   5.17785E-04   1.00000E-30
 9.15000E+01               1.66581E-05   1.76218E-03   5.17785E-04   1.00000E-30
 9.25000E+01               1.66581E-05   1.76218E-03   5.17785E-04   1.00000E-30
 9.35000E+01               1.66581E-05   1.76218E-03   5.17785E-04   1.00000E-30
 9.45000E+01               1.66581E-05   1.76218E-03   5.17785E-04   1.00000E-30
 9.55000E+01               1.66581E-05   1.76218E-03   5.17785E-04   1.00000E-30
 9.65000E+01               1.66581E-05   1.76218E-03   5.17785E-04   1.00000E-30
 9.75000E+01               1.66581E-05   1.76218E-03   5.17785E-04   1.00000E-30
 9.85000E+01               1.66581E-05   1.76218E-03   5.17785E-04   1.00000E-30
 9.95000E+01               1.66581E-05   1.76218E-03   5.17785E-04   1.00000E-30
