# Units: Volume % (m^3 mineral/m^3 porous medium)
 TITLE = " Years"
VARIABLES = "X (meters)", "Calcite   ", "
 ZONE F=POINT,I=         100
 5.00000E-01               0.00000E+00
 1.50000E+00               0.00000E+00
 2.50000E+00               0.00000E+00
 3.50000E+00               0.00000E+00
 4.50000E+00               0.00000E+00
 5.50000E+00               0.00000E+00
 6.50000E+00               0.00000E+00
 7.50000E+00               0.00000E+00
 8.50000E+00               0.00000E+00
 9.50000E+00               0.00000E+00
 1.05000E+01               0.00000E+00
 1.15000E+01               0.00000E+00
 1.25000E+01               0.00000E+00
 1.35000E+01               0.00000E+00
 1.45000E+01               0.00000E+00
 1.55000E+01               0.00000E+00
 1.65000E+01               0.00000E+00
 1.75000E+01               0.00000E+00
 1.85000E+01               0.00000E+00
 1.95000E+01               0.00000E+00
 2.05000E+01               0.00000E+00
 2.15000E+01               0.00000E+00
 2.25000E+01               0.00000E+00
 2.35000E+01               9.39449E-04
 2.45000E+01               9.99415E-04
 2.55000E+01               9.99960E-04
 2.65000E+01               9.99954E-04
 2.75000E+01               9.99951E-04
 2.85000E+01               9.99968E-04
 2.95000E+01               9.99981E-04
 3.05000E+01               9.99997E-04
 3.15000E+01               1.00001E-03
 3.25000E+01               1.00001E-03
 3.35000E+01               9.99999E-04
 3.45000E+01               1.00001E-03
 3.55000E+01               9.99998E-04
 3.65000E+01               1.00001E-03
 3.75000E+01               9.99996E-04
 3.85000E+01               1.00001E-03
 3.95000E+01               9.99997E-04
 4.05000E+01               1.00001E-03
 4.15000E+01               1.00000E-03
 4.25000E+01               1.00000E-03
 4.35000E+01               1.00001E-03
 4.45000E+01               9.99998E-04
 4.55000E+01               9.99999E-04
 4.65000E+01               9.99979E-04
 4.75000E+01               9.99968E-04
 4.85000E+01               9.99952E-04
 4.95000E+01               9.99947E-04
 5.05000E+01               9.99947E-04
 5.15000E+01               9.99951E-04
 5.25000E+01               9.99964E-04
 5.35000E+01               9.99975E-04
 5.45000E+01               9.99989E-04
 5.55000E+01               9.99998E-04
 5.65000E+01               1.00000E-03
 5.75000E+01               1.00000E-03
 5.85000E+01               1.00000E-03
 5.95000E+01               1.00000E-03
 6.05000E+01               1.00000E-03
 6.15000E+01               1.00000E-03
 6.25000E+01               1.00000E-03
 6.35000E+01               1.00000E-03
 6.45000E+01               1.00000E-03
 6.55000E+01               1.00000E-03
 6.65000E+01               1.00000E-03
 6.75000E+01               1.00000E-03
 6.85000E+01               1.00000E-03
 6.95000E+01               1.00000E-03
 7.05000E+01               1.00000E-03
 7.15000E+01               1.00000E-03
 7.25000E+01               1.00000E-03
 7.35000E+01               1.00000E-03
 7.45000E+01               1.00000E-03
 7.55000E+01               1.00000E-03
 7.65000E+01               1.00000E-03
 7.75000E+01               1.00000E-03
 7.85000E+01               1.00000E-03
 7.95000E+01               1.00000E-03
 8.05000E+01               1.00000E-03
 8.15000E+01               1.00000E-03
 8.25000E+01               1.00000E-03
 8.35000E+01               1.00000E-03
 8.45000E+01               1.00000E-03
 8.55000E+01               1.00000E-03
 8.65000E+01               1.00000E-03
 8.75000E+01               1.00000E-03
 8.85000E+01               1.00000E-03
 8.95000E+01               1.00000E-03
 9.05000E+01               1.00000E-03
 9.15000E+01               1.00000E-03
 9.25000E+01               1.00000E-03
 9.35000E+01               1.00000E-03
 9.45000E+01               1.00000E-03
 9.55000E+01               1.00000E-03
 9.65000E+01               1.00000E-03
 9.75000E+01               1.00000E-03
 9.85000E+01               1.00000E-03
 9.95000E+01               1.00000E-03
