# Units: Mol/kgw
 TITLE = " Years"
VARIABLES = "X (meters)", "H+        ", "HCO3-     ", "Ca++      ", "Tracer    ", "
 ZONE F=POINT,I=         100
 5.00000E-01               9.66444E-04   1.00000E-03   1.67780E-05   1.00000E-03
 1.50000E+00               9.66444E-04   1.00000E-03   1.67780E-05   1.00000E-03
 2.50000E+00               9.66444E-04   1.00000E-03   1.67780E-05   1.00000E-03
 3.50000E+00               9.66444E-04   1.00000E-03   1.67780E-05   1.00000E-03
 4.50000E+00               9.66444E-04   1.00000E-03   1.67780E-05   1.00000E-03
 5.50000E+00               9.66444E-04   1.00000E-03   1.67780E-05   1.00000E-03
 6.50000E+00               9.66444E-04   1.00000E-03   1.67780E-05   1.00000E-03
 7.50000E+00               9.66444E-04   1.00000E-03   1.67780E-05   1.00000E-03
 8.50000E+00               9.66444E-04   1.00000E-03   1.67780E-05   1.00000E-03
 9.50000E+00               9.66444E-04   1.00000E-03   1.67780E-05   1.00000E-03
 1.05000E+01               9.66444E-04   1.00000E-03   1.67780E-05   1.00000E-03
 1.15000E+01               9.66444E-04   1.00000E-03   1.67780E-05   1.00000E-03
 1.25000E+01               9.66444E-04   1.00000E-03   1.67780E-05   1.00000E-03
 1.35000E+01               9.66444E-04   1.00000E-03   1.67780E-05   1.00000E-03
 1.45000E+01               9.66444E-04   1.00000E-03   1.67780E-05   1.00000E-03
 1.55000E+01               9.66444E-04   1.00000E-03   1.67780E-05   1.00000E-03
 1.65000E+01               9.66444E-04   1.00000E-03   1.67780E-05   1.00000E-03
 1.75000E+01               9.66444E-04   1.00000E-03   1.67780E-05   1.00000E-03
 1.85000E+01               9.66443E-04   1.00000E-03   1.67787E-05   1.00000E-03
 1.95000E+01               9.66426E-04   1.00002E-03   1.67959E-05   1.00000E-03
 2.05000E+01               9.66004E-04   1.00044E-03   1.72176E-05   1.00000E-03
 2.15000E+01               9.54628E-04   1.01182E-03   2.85936E-05   1.00000E-03
 2.25000E+01               5.70887E-04   1.39558E-03   4.12329E-04   1.00000E-03
 2.35000E+01               5.48995E-05   1.91152E-03   9.28290E-04   1.00000E-03
 2.45000E+01               5.37160E-05   1.91267E-03   9.29495E-04   1.00000E-03
 2.55000E+01               5.37119E-05   1.91270E-03   9.29527E-04   1.00000E-03
 2.65000E+01               5.37143E-05   1.91272E-03   9.29538E-04   1.00000E-03
 2.75000E+01               5.37163E-05   1.91275E-03   9.29543E-04   1.00000E-03
 2.85000E+01               5.37178E-05   1.91277E-03   9.29544E-04   1.00000E-03
 2.95000E+01               5.37185E-05   1.91278E-03   9.29542E-04   1.00000E-03
 3.05000E+01               5.37182E-05   1.91279E-03   9.29535E-04   1.00000E-03
 3.15000E+01               5.37166E-05   1.91279E-03   9.29510E-04   1.00000E-03
 3.25000E+01               5.37134E-05   1.91278E-03   9.29471E-04   1.00000E-03
 3.35000E+01               5.37082E-05   1.91274E-03   9.29431E-04   1.00000E-03
 3.45000E+01               5.37022E-05   1.91267E-03   9.29411E-04   1.00000E-03
 3.55000E+01               5.36969E-05   1.91259E-03   9.29410E-04   1.00000E-03
 3.65000E+01               5.36950E-05   1.91254E-03   9.29429E-04   1.00000E-03
 3.75000E+01               5.36991E-05   1.91254E-03   9.29497E-04   1.00000E-03
 3.85000E+01               5.37082E-05   1.91257E-03   9.29605E-04   9.99999E-04
 3.95000E+01               5.37239E-05   1.91270E-03   9.29708E-04   9.99997E-04
 4.05000E+01               5.37411E-05   1.91292E-03   9.29753E-04   9.99989E-04
 4.15000E+01               5.37520E-05   1.91308E-03   9.29750E-04   9.99953E-04
 4.25000E+01               5.37510E-05   1.91311E-03   9.29699E-04   9.99801E-04
 4.35000E+01               5.37304E-05   1.91307E-03   9.29420E-04   9.99168E-04
 4.45000E+01               5.36288E-05   1.91273E-03   9.28182E-04   9.96561E-04
 4.55000E+01               5.31804E-05   1.91103E-03   9.22898E-04   9.85622E-04
 4.65000E+01               5.16582E-05   1.90491E-03   9.05611E-04   9.47216E-04
 4.75000E+01               4.85937E-05   1.89217E-03   8.71475E-04   8.65773E-04
 4.85000E+01               4.40244E-05   1.87307E-03   8.20594E-04   7.41307E-04
 4.95000E+01               3.83464E-05   1.84934E-03   7.57214E-04   5.84387E-04
 5.05000E+01               3.22705E-05   1.82408E-03   6.89337E-04   4.15780E-04
 5.15000E+01               2.66049E-05   1.80085E-03   6.26303E-04   2.59696E-04
 5.25000E+01               2.20260E-05   1.78250E-03   5.75858E-04   1.35943E-04
 5.35000E+01               1.88953E-05   1.77033E-03   5.41803E-04   5.38689E-05
 5.45000E+01               1.72323E-05   1.76414E-03   5.23920E-04   1.27207E-05
 5.55000E+01               1.67453E-05   1.76247E-03   5.18719E-04   1.89489E-06
 5.65000E+01               1.66709E-05   1.76222E-03   5.17922E-04   2.76380E-07
 5.75000E+01               1.66599E-05   1.76218E-03   5.17804E-04   3.91406E-08
 5.85000E+01               1.66583E-05   1.76218E-03   5.17787E-04   5.33106E-09
 5.95000E+01               1.66581E-05   1.76218E-03   5.17785E-04   6.31041E-10
 6.05000E+01               1.66581E-05   1.76218E-03   5.17785E-04   7.69528E-15
 6.15000E+01               1.66581E-05   1.76218E-03   5.17785E-04   4.74092E-16
 6.25000E+01               1.66581E-05   1.76218E-03   5.17785E-04   2.00828E-17
 6.35000E+01               1.66581E-05   1.76218E-03   5.17785E-04   1.26247E-18
 6.45000E+01               1.66581E-05   1.76218E-03   5.17785E-04   1.17587E-19
 6.55000E+01               1.66581E-05   1.76218E-03   5.17785E-04   8.43991E-21
 6.65000E+01               1.66581E-05   1.76218E-03   5.17785E-04   9.53113E-22
 6.75000E+01               1.66581E-05   1.76218E-03   5.17785E-04   1.20402E-22
 6.85000E+01               1.66581E-05   1.76218E-03   5.17785E-04   1.65868E-23
 6.95000E+01               1.66581E-05   1.76218E-03   5.17785E-04   2.43276E-24
 7.05000E+01               1.66581E-05   1.76218E-03   5.17785E-04   3.64107E-25
 7.15000E+01               1.66581E-05   1.76218E-03   5.17785E-04   5.55397E-26
 7.25000E+01               1.66581E-05   1.76218E-03   5.17785E-04   8.83537E-27
 7.35000E+01               1.66581E-05   1.76218E-03   5.17785E-04   1.47102E-27
 7.45000E+01               1.66581E-05   1.76218E-03   5.17785E-04   2.54878E-28
 7.55000E+01               1.66581E-05   1.76218E-03   5.17785E-04   4.54593E-29
 7.65000E+01               1.66581E-05   1.76218E-03   5.17785E-04   9.17070E-30
 7.75000E+01               1.66581E-05   1.76218E-03   5.17785E-04   3.00102E-30
 7.85000E+01               1.66581E-05   1.76218E-03   5.17785E-04   2.18875E-30
 7.95000E+01               1.66581E-05   1.76218E-03   5.17785E-04   1.70684E-30
 8.05000E+01               1.66581E-05   1.76218E-03   5.17785E-04   1.41935E-30
 8.15000E+01               1.66581E-05   1.76218E-03   5.17785E-04   1.23896E-30
 8.25000E+01               1.66581E-05   1.76218E-03   5.17785E-04   1.13128E-30
 8.35000E+01               1.66581E-05   1.76218E-03   5.17785E-04   1.07009E-30
 8.45000E+01               1.66581E-05   1.76218E-03   5.17785E-04   1.03646E-30
 8.55000E+01               1.66581E-05   1.76218E-03   5.17785E-04   1.01851E-30
 8.65000E+01               1.66581E-05   1.76218E-03   5.17785E-04   1.00919E-30
 8.75000E+01               1.66581E-05   1.76218E-03   5.17785E-04   1.00446E-30
 8.85000E+01               1.66581E-05   1.76218E-03   5.17785E-04   1.00212E-30
 8.95000E+01               1.66581E-05   1.76218E-03   5.17785E-04   1.00099E-30
 9.05000E+01               1.66581E-05   1.76218E-03   5.17785E-04   1.00045E-30
 9.15000E+01               1.66581E-05   1.76218E-03   5.17785E-04   1.00020E-30
 9.25000E+01               1.66581E-05   1.76218E-03   5.17785E-04   1.00009E-30
 9.35000E+01               1.66581E-05   1.76218E-03   5.17785E-04   1.00004E-30
 9.45000E+01               1.66581E-05   1.76218E-03   5.17785E-04   1.00002E-30
 9.55000E+01               1.66581E-05   1.76218E-03   5.17785E-04   1.00001E-30
 9.65000E+01               1.66581E-05   1.76218E-03   5.17785E-04   1.00000E-30
 9.75000E+01               1.66581E-05   1.76218E-03   5.17785E-04   1.00000E-30
 9.85000E+01               1.66581E-05   1.76218E-03   5.17785E-04   1.00000E-30
 9.95000E+01               1.66581E-05   1.76218E-03   5.17785E-04   1.00000E-30
