# Units: Mol/kgw
 TITLE = " Years"
VARIABLES = "X (meters) ", "Tracer       ", "
 ZONE F=POINT,I=         100
 5.00000E-01               1.00000000E-03
 1.50000E+00               1.00000000E-03
 2.50000E+00               1.00000000E-03
 3.50000E+00               1.00000000E-03
 4.50000E+00               1.00000000E-03
 5.50000E+00               1.00000000E-03
 6.50000E+00               1.00000000E-03
 7.50000E+00               1.00000000E-03
 8.50000E+00               1.00000000E-03
 9.50000E+00               1.00000000E-03
 1.05000E+01               1.00000000E-03
 1.15000E+01               1.00000000E-03
 1.25000E+01               1.00000000E-03
 1.35000E+01               1.00000000E-03
 1.45000E+01               1.00000000E-03
 1.55000E+01               1.00000000E-03
 1.65000E+01               1.00000000E-03
 1.75000E+01               1.00000000E-03
 1.85000E+01               1.00000000E-03
 1.95000E+01               1.00000000E-03
 2.05000E+01               1.00000000E-03
 2.15000E+01               1.00000000E-03
 2.25000E+01               1.00000000E-03
 2.35000E+01               1.00000000E-03
 2.45000E+01               1.00000000E-03
 2.55000E+01               1.00000000E-03
 2.65000E+01               1.00000000E-03
 2.75000E+01               1.00000000E-03
 2.85000E+01               1.00000000E-03
 2.95000E+01               1.00000000E-03
 3.05000E+01               1.00000000E-03
 3.15000E+01               1.00000000E-03
 3.25000E+01               1.00000000E-03
 3.35000E+01               1.00000000E-03
 3.45000E+01               1.00000000E-03
 3.55000E+01               9.99999998E-04
 3.65000E+01               9.99999991E-04
 3.75000E+01               9.99999955E-04
 3.85000E+01               9.99999775E-04
 3.95000E+01               9.99998883E-04
 4.05000E+01               9.99994542E-04
 4.15000E+01               9.99973721E-04
 4.25000E+01               9.99875110E-04
 4.35000E+01               9.99411772E-04
 4.45000E+01               9.97239087E-04
 4.55000E+01               9.87004788E-04
 4.65000E+01               9.48849366E-04
 4.75000E+01               8.68093873E-04
 4.85000E+01               7.43779726E-04
 4.95000E+01               5.85532512E-04
 5.05000E+01               4.14524690E-04
 5.15000E+01               2.56390281E-04
 5.25000E+01               1.32092146E-04
 5.35000E+01               5.14621773E-05
 5.45000E+01               1.26705032E-05
 5.55000E+01               2.48166031E-06
 5.65000E+01               5.02103832E-07
 5.75000E+01               9.93876740E-08
 5.85000E+01               1.93466071E-08
 5.95000E+01               3.72612177E-09
 6.05000E+01               7.12521071E-10
 6.15000E+01               1.35251613E-10
 6.25000E+01               2.54130393E-11
 6.35000E+01               4.70922996E-12
 6.45000E+01               8.57919215E-13
 6.55000E+01               1.53309581E-13
 6.65000E+01               2.68339585E-14
 6.75000E+01               4.59605441E-15
 6.85000E+01               7.69891358E-16
 6.95000E+01               1.26162718E-16
 7.05000E+01               2.03184131E-17
 7.15000E+01               3.31834797E-18
 7.25000E+01               6.52283756E-19
 7.35000E+01               2.44182599E-19
 7.45000E+01               1.83228337E-19
 7.55000E+01               1.74347302E-19
 7.65000E+01               1.73085317E-19
 7.75000E+01               1.72910451E-19
 7.85000E+01               1.72886826E-19
 7.95000E+01               1.72883714E-19
 8.05000E+01               1.72883314E-19
 8.15000E+01               1.72883264E-19
 8.25000E+01               1.72883258E-19
 8.35000E+01               1.72883257E-19
 8.45000E+01               1.72883257E-19
 8.55000E+01               1.72883257E-19
 8.65000E+01               1.72883257E-19
 8.75000E+01               1.72883257E-19
 8.85000E+01               1.72883257E-19
 8.95000E+01               1.72883257E-19
 9.05000E+01               1.72883257E-19
 9.15000E+01               1.72883257E-19
 9.25000E+01               1.72883257E-19
 9.35000E+01               1.72883257E-19
 9.45000E+01               1.72883257E-19
 9.55000E+01               1.72883257E-19
 9.65000E+01               1.72883257E-19
 9.75000E+01               1.72883257E-19
 9.85000E+01               1.72883257E-19
 9.95000E+01               1.72883257E-19
